

1750 atoms
4765 bonds
1 atom types
1 bond types
-432 432 xlo xhi
-259.2 259.2 ylo yhi
-32 32 zlo zhi

Atoms #bpm/sphere

1 1 1 1 1 -423.36 -259.2 0
2 1 1 1 1 -406.08 -259.2 0
3 1 1 1 1 -388.8 -259.2 0
4 1 1 1 1 -371.52 -259.2 0
5 1 1 1 1 -354.24 -259.2 0
6 1 1 1 1 -336.96 -259.2 0
7 1 1 1 1 -319.68 -259.2 0
8 1 1 1 1 -302.4 -259.2 0
9 1 1 1 1 -285.12 -259.2 0
10 1 1 1 1 -267.84 -259.2 0
11 1 1 1 1 -250.56 -259.2 0
12 1 1 1 1 -233.2799999999999 -259.2 0
13 1 1 1 1 -216 -259.2 0
14 1 1 1 1 -198.72 -259.2 0
15 1 1 1 1 -181.4399999999999 -259.2 0
16 1 1 1 1 -164.16 -259.2 0
17 1 1 1 1 -146.88 -259.2 0
18 1 1 1 1 -129.6 -259.2 0
19 1 1 1 1 -112.32 -259.2 0
20 1 1 1 1 -95.03999999999995 -259.2 0
21 1 1 1 1 -77.75999999999996 -259.2 0
22 1 1 1 1 -60.47999999999997 -259.2 0
23 1 1 1 1 -43.19999999999992 -259.2 0
24 1 1 1 1 -25.91999999999993 -259.2 0
25 1 1 1 1 -8.639999999999938 -259.2 0
26 1 1 1 1 8.640000000000052 -259.2 0
27 1 1 1 1 25.92000000000004 -259.2 0
28 1 1 1 1 43.20000000000008 -259.2 0
29 1 1 1 1 60.48000000000012 -259.2 0
30 1 1 1 1 77.76000000000006 -259.2 0
31 1 1 1 1 95.04000000000011 -259.2 0
32 1 1 1 1 112.32 -259.2 0
33 1 1 1 1 129.6000000000001 -259.2 0
34 1 1 1 1 146.8800000000001 -259.2 0
35 1 1 1 1 164.1600000000001 -259.2 0
36 1 1 1 1 181.4400000000001 -259.2 0
37 1 1 1 1 198.72 -259.2 0
38 1 1 1 1 216.0000000000001 -259.2 0
39 1 1 1 1 233.2800000000001 -259.2 0
40 1 1 1 1 250.5600000000001 -259.2 0
41 1 1 1 1 267.8400000000002 -259.2 0
42 1 1 1 1 285.1200000000002 -259.2 0
43 1 1 1 1 302.4000000000001 -259.2 0
44 1 1 1 1 319.6800000000002 -259.2 0
45 1 1 1 1 336.9600000000002 -259.2 0
46 1 1 1 1 354.2400000000001 -259.2 0
47 1 1 1 1 371.5200000000002 -259.2 0
48 1 1 1 1 388.8000000000001 -259.2 0
49 1 1 1 1 406.0800000000002 -259.2 0
50 1 1 1 1 423.3600000000002 -259.2 0
51 1 1 1 1 -432 -244.2350810226049 0
52 1 1 1 1 -412.4418300818246 -246.4772325075562 0
53 1 1 1 1 -397.618900053743 -241.9842195525206 0
54 1 1 1 1 -378.9648248463774 -245.9081194633591 0
55 1 1 1 1 -362.7885370141028 -243.9537790255027 0
56 1 1 1 1 -344.854063141988 -244.8055128267519 0
57 1 1 1 1 -326.0005082935857 -246.022360639113 0
58 1 1 1 1 -313.3988720811313 -242.4708809997665 0
59 1 1 1 1 -291.1001312498194 -244.2077233642587 0
60 1 1 1 1 -275.7576858484831 -245.9978759068186 0
61 1 1 1 1 -259.3386587622774 -245.9477583829176 0
62 1 1 1 1 -240.8847018742717 -242.4254831966642 0
63 1 1 1 1 -226.0796008701241 -245.7425544950067 0
64 1 1 1 1 -205.1042420458931 -245.8747563874938 0
65 1 1 1 1 -192.2594371156214 -245.5240790367226 0
66 1 1 1 1 -169.8217008670026 -243.3635863424948 0
67 1 1 1 1 -157.0048069157094 -248.1049463384323 0
68 1 1 1 1 -138.2899242573018 -242.8494491008783 0
69 1 1 1 1 -119.4535880130671 -247.6220837320575 0
70 1 1 1 1 -106.5412740058197 -244.9040700685265 0
71 1 1 1 1 -89.93435382525522 -244.6251306330481 0
72 1 1 1 1 -66.29338518555704 -241.4484007685543 0
73 1 1 1 1 -52.94807677834654 -244.7309602139379 0
74 1 1 1 1 -32.49498892404331 -247.2343083347432 0
75 1 1 1 1 -13.65955015529019 -243.4829075800886 0
76 1 1 1 1 3.945198431104684 -244.9917239296082 0
77 1 1 1 1 17.85988630656446 -245.2455768329193 0
78 1 1 1 1 35.4898066534141 -247.3924379676811 0
79 1 1 1 1 49.39241159818344 -246.9045438888245 0
80 1 1 1 1 66.36235628498336 -246.3947067089364 0
81 1 1 1 1 86.64305285158565 -240.7030008198421 0
82 1 1 1 1 101.8874579217205 -245.5311188428616 0
83 1 1 1 1 119.4793716112608 -242.1529358806545 0
84 1 1 1 1 139.9567039778445 -244.4726962513387 0
85 1 1 1 1 155.5473663410787 -243.3493582707 0
86 1 1 1 1 169.4705743962356 -242.2937902745572 0
87 1 1 1 1 188.0934750134908 -243.0871085619506 0
88 1 1 1 1 204.5327513193571 -247.0571762327364 0
89 1 1 1 1 226.6819269734401 -246.8314952000432 0
90 1 1 1 1 240.641758336942 -240.9110023559689 0
91 1 1 1 1 256.8313232486506 -245.3826334534164 0
92 1 1 1 1 278.8722357522677 -244.5798764546644 0
93 1 1 1 1 293.6723858725666 -248.2883484239621 0
94 1 1 1 1 312.7049249685312 -241.6358899601143 0
95 1 1 1 1 325.2779184017326 -244.3677664147652 0
96 1 1 1 1 347.8924056594287 -247.5813701631635 0
97 1 1 1 1 360.5138593870702 -244.9909380164077 0
98 1 1 1 1 378.7293214197833 -243.4044439932938 0
99 1 1 1 1 398.8781937675141 -241.5649927496087 0
100 1 1 1 1 415.7588428215108 -243.7418439475876 0
101 1 1 1 1 -419.7992517875782 -229.3593706639517 0
102 1 1 1 1 -409.0128552648646 -228.8239578642588 0
103 1 1 1 1 -388.9028815328958 -228.3137403305184 0
104 1 1 1 1 -372.1982876541402 -229.9966541226459 0
105 1 1 1 1 -354.9423756275054 -229.5163693160846 0
106 1 1 1 1 -340.420365161911 -228.410540673948 0
107 1 1 1 1 -323.4265852763915 -228.737197279023 0
108 1 1 1 1 -301.2366438966637 -228.023872660549 0
109 1 1 1 1 -284.728206042407 -228.7195906909239 0
110 1 1 1 1 -264.7992101879711 -230.4195888460749 0
111 1 1 1 1 -250.4833037573887 -230.0202346842644 0
112 1 1 1 1 -235.9243323137634 -228.5345573207426 0
113 1 1 1 1 -217.4427287857418 -233.1360126442656 0
114 1 1 1 1 -196.487767263828 -228.2963401916075 0
115 1 1 1 1 -179.137446770187 -227.3841155751626 0
116 1 1 1 1 -167.246004672251 -228.1794446836683 0
117 1 1 1 1 -146.5743837381342 -229.6417102965277 0
118 1 1 1 1 -126.5230257188047 -231.3115211640857 0
119 1 1 1 1 -109.2976840153629 -231.2465669532575 0
120 1 1 1 1 -97.29169679013771 -229.8835215625724 0
121 1 1 1 1 -80.88318118415657 -230.3984122224317 0
122 1 1 1 1 -62.75858641568965 -227.6581784246331 0
123 1 1 1 1 -41.65220991311218 -230.0784713222998 0
124 1 1 1 1 -23.3611394529297 -227.9316283211882 0
125 1 1 1 1 -11.14093213679797 -228.3218650627035 0
126 1 1 1 1 6.179822729819676 -226.971821646035 0
127 1 1 1 1 29.68112202433947 -228.3112811160847 0
128 1 1 1 1 45.40990491446519 -229.6065448739088 0
129 1 1 1 1 61.7969681447001 -229.6324403646847 0
130 1 1 1 1 76.31544685351948 -229.7237091002517 0
131 1 1 1 1 93.98967337629732 -229.3771662577209 0
132 1 1 1 1 109.6684590160247 -226.1835771653483 0
133 1 1 1 1 125.6898343237933 -229.707250530236 0
134 1 1 1 1 143.3311391576499 -227.9292605491272 0
135 1 1 1 1 164.5520424016799 -227.6315395576738 0
136 1 1 1 1 185.1326171708556 -227.6129502588078 0
137 1 1 1 1 198.4823169360898 -231.6116458648576 0
138 1 1 1 1 214.3707390400493 -227.8043738172139 0
139 1 1 1 1 232.711599161338 -225.8736693824773 0
140 1 1 1 1 252.1852288042101 -230.7980900927049 0
141 1 1 1 1 269.2669574749482 -230.0044970427366 0
142 1 1 1 1 288.6892125537848 -228.7128842926008 0
143 1 1 1 1 299.2520344316647 -227.9318942000344 0
144 1 1 1 1 320.4680766447315 -230.0256914435021 0
145 1 1 1 1 337.0290609305607 -232.462559085231 0
146 1 1 1 1 353.8797692463699 -226.732150618673 0
147 1 1 1 1 369.9565102035558 -225.5747269793131 0
148 1 1 1 1 391.6055735497193 -228.8448813617144 0
149 1 1 1 1 408.5503259951559 -228.1138695942918 0
150 1 1 1 1 423.7818990577321 -227.1728523116412 0
151 1 1 1 1 -432 -214.3052430678147 0
152 1 1 1 1 -412.9518233283895 -214.4879594202052 0
153 1 1 1 1 -399.1974912268875 -216.3761478158256 0
154 1 1 1 1 -376.7495961306218 -213.4697211331852 0
155 1 1 1 1 -366.289924773186 -216.3362722709536 0
156 1 1 1 1 -347.0644299423969 -212.6208809325161 0
157 1 1 1 1 -330.1744435083152 -215.4028348083637 0
158 1 1 1 1 -314.6969633080186 -214.0363763428163 0
159 1 1 1 1 -294.3441310082176 -217.5237254782963 0
160 1 1 1 1 -277.2452648430418 -212.238268150675 0
161 1 1 1 1 -259.9885093578313 -210.6034662637287 0
162 1 1 1 1 -244.8512063977746 -216.4959296447827 0
163 1 1 1 1 -221.3196082185306 -215.8541628055996 0
164 1 1 1 1 -203.2851627294095 -214.2514045661403 0
165 1 1 1 1 -189.1279600938878 -217.3069725983618 0
166 1 1 1 1 -173.8705493814106 -215.0806139298302 0
167 1 1 1 1 -152.540602587907 -214.7864574455848 0
168 1 1 1 1 -140.1297439420085 -217.853952021898 0
169 1 1 1 1 -121.8365618983995 -216.7039720162974 0
170 1 1 1 1 -102.4432540616958 -215.6839248034496 0
171 1 1 1 1 -87.76078957132272 -212.4278883163604 0
172 1 1 1 1 -68.81540849563289 -212.7499847419927 0
173 1 1 1 1 -54.21405104561379 -212.8412482431735 0
174 1 1 1 1 -34.42505897693817 -218.4105102990219 0
175 1 1 1 1 -15.61228844871797 -211.4855585767271 0
176 1 1 1 1 1.463356005457081 -217.9052208467881 0
177 1 1 1 1 18.71563214064277 -210.487933155435 0
178 1 1 1 1 35.39283780000719 -218.2865062527002 0
179 1 1 1 1 52.72522057611791 -217.2018246828312 0
180 1 1 1 1 70.60625105431264 -213.3935933678104 0
181 1 1 1 1 86.39084869475856 -210.826269987016 0
182 1 1 1 1 105.5801618250142 -211.9059646908158 0
183 1 1 1 1 123.8498944617362 -217.0008619064489 0
184 1 1 1 1 136.4551193247917 -216.4729724818663 0
185 1 1 1 1 153.8154101719109 -214.6234570932788 0
186 1 1 1 1 169.5014275808086 -212.808975352538 0
187 1 1 1 1 189.1897085718939 -216.3833950496331 0
188 1 1 1 1 206.5725669191801 -210.546866645401 0
189 1 1 1 1 221.5880552256835 -214.4227490131861 0
190 1 1 1 1 242.9501826624284 -211.8853622720076 0
191 1 1 1 1 256.8064101722072 -211.2154093897972 0
192 1 1 1 1 276.1413232651952 -216.4604316251507 0
193 1 1 1 1 292.9650805441971 -214.1177541233631 0
194 1 1 1 1 308.687396591207 -213.9197608371437 0
195 1 1 1 1 330.4414427206781 -212.3449618276739 0
196 1 1 1 1 348.3546672584089 -214.3590938997515 0
197 1 1 1 1 362.6981332703251 -212.7006517764611 0
198 1 1 1 1 378.0642383385001 -217.1414465084812 0
199 1 1 1 1 399.6961884141381 -213.5635570243908 0
200 1 1 1 1 415.2812444582678 -217.6052274108363 0
201 1 1 1 1 -424.7117136421907 -195.6163512041524 0
202 1 1 1 1 -408.4293062772258 -197.9624449666902 0
203 1 1 1 1 -387.5959009181362 -195.6526904273569 0
204 1 1 1 1 -369.0624568515292 -199.4396888323427 0
205 1 1 1 1 -355.9163569877503 -197.0862444627699 0
206 1 1 1 1 -339.829086397978 -200.2043744013807 0
207 1 1 1 1 -321.6994618969312 -202.1860773890361 0
208 1 1 1 1 -300.4024060193707 -197.419218786987 0
209 1 1 1 1 -281.8969485304232 -198.3466953349534 0
210 1 1 1 1 -265.0780241723136 -198.8545537901715 0
211 1 1 1 1 -248.3373582211501 -202.4359120482462 0
212 1 1 1 1 -232.8992598694483 -201.3893168230388 0
213 1 1 1 1 -214.9263528675698 -197.2201084451022 0
214 1 1 1 1 -200.2982855804191 -201.5814478302593 0
215 1 1 1 1 -183.6813322854551 -197.3481178780444 0
216 1 1 1 1 -160.1418887254835 -199.014871337245 0
217 1 1 1 1 -149.9765355191789 -197.0712620207616 0
218 1 1 1 1 -126.8551373457908 -197.8441924894395 0
219 1 1 1 1 -115.3306610432622 -197.5988832038723 0
220 1 1 1 1 -91.80496317536924 -198.2794701715552 0
221 1 1 1 1 -79.13498198190641 -199.736021118359 0
222 1 1 1 1 -60.66184180195997 -197.5072360272426 0
223 1 1 1 1 -41.35837871113547 -198.784319688369 0
224 1 1 1 1 -26.68068821377046 -195.269489603846 0
225 1 1 1 1 -5.34968338068115 -199.6070375086876 0
226 1 1 1 1 7.615923332979519 -200.2673370344214 0
227 1 1 1 1 27.855968184273 -196.9452432470807 0
228 1 1 1 1 43.87622684539914 -199.8942414290196 0
229 1 1 1 1 62.54514093903162 -197.8022318123398 0
230 1 1 1 1 79.55401715732027 -197.7703319858331 0
231 1 1 1 1 94.2340231957662 -197.9562957739489 0
232 1 1 1 1 114.9542848750706 -196.5777831034142 0
233 1 1 1 1 127.5156799528954 -200.2932529299739 0
234 1 1 1 1 143.44381601305 -198.4702398379041 0
235 1 1 1 1 166.0597487882809 -201.8963270561572 0
236 1 1 1 1 181.6505234079152 -202.5074133434909 0
237 1 1 1 1 199.8597289355968 -198.460103554845 0
238 1 1 1 1 213.5113116281406 -200.4117451257255 0
239 1 1 1 1 233.4957700337768 -197.267986992264 0
240 1 1 1 1 250.1822277968621 -196.0748927646548 0
241 1 1 1 1 266.4733798121013 -195.8617844508329 0
242 1 1 1 1 281.7260296625834 -199.3670452987785 0
243 1 1 1 1 304.597595425719 -197.6331788588266 0
244 1 1 1 1 319.4492953054389 -201.7909327664349 0
245 1 1 1 1 334.6858069887337 -195.9475643656407 0
246 1 1 1 1 356.1532789447263 -197.3155196145102 0
247 1 1 1 1 368.6946940834188 -197.338913623247 0
248 1 1 1 1 386.5583355888032 -200.2861084311681 0
249 1 1 1 1 406.0506793453827 -202.9126614467287 0
250 1 1 1 1 423.5164868309855 -198.3314714468406 0
251 1 1 1 1 -432 -184.3754051130245 0
252 1 1 1 1 -415.5027928581563 -186.30927344405 0
253 1 1 1 1 -400.5913690755437 -185.8744222931223 0
254 1 1 1 1 -381.2948884225995 -188.0643134507606 0
255 1 1 1 1 -361.2647474945227 -187.6634505013969 0
256 1 1 1 1 -342.681102417135 -185.0933458617956 0
257 1 1 1 1 -327.7563958333533 -187.6406675389885 0
258 1 1 1 1 -308.0893504814632 -182.878610498005 0
259 1 1 1 1 -293.610267538679 -182.7576444106993 0
260 1 1 1 1 -276.7214195428019 -182.0432520518527 0
261 1 1 1 1 -258.3979613146872 -185.5172577589493 0
262 1 1 1 1 -244.8623384743944 -181.6012726731606 0
263 1 1 1 1 -224.6234405751534 -187.0995151619802 0
264 1 1 1 1 -208.0150647487085 -185.3215560734117 0
265 1 1 1 1 -189.8762903805431 -181.2731120651478 0
266 1 1 1 1 -173.661968276607 -188.1588484828481 0
267 1 1 1 1 -154.7925346808778 -182.2619237265449 0
268 1 1 1 1 -141.8470791065984 -185.4447492962308 0
269 1 1 1 1 -117.8744544121451 -186.0491294407131 0
270 1 1 1 1 -104.5956171852474 -184.5957573474475 0
271 1 1 1 1 -83.22212666534765 -185.3807121969121 0
272 1 1 1 1 -68.39895506532665 -183.8818476949726 0
273 1 1 1 1 -49.9205998537515 -185.9669324490433 0
274 1 1 1 1 -31.23116138925729 -183.0135678788815 0
275 1 1 1 1 -20.38103356728671 -181.9754421234417 0
276 1 1 1 1 3.097471451146022 -182.3651187469985 0
277 1 1 1 1 20.49302105763153 -185.5768682268638 0
278 1 1 1 1 34.53603894446619 -183.6577828167478 0
279 1 1 1 1 50.54765500198899 -186.7552072781785 0
280 1 1 1 1 65.94249412609607 -185.8700994727905 0
281 1 1 1 1 84.36403068730708 -183.3637390835326 0
282 1 1 1 1 100.0639131313659 -182.7982777904973 0
283 1 1 1 1 122.1287660751754 -187.0752450924278 0
284 1 1 1 1 139.1733943275921 -183.1989567932461 0
285 1 1 1 1 158.7073767243614 -182.4565761832828 0
286 1 1 1 1 171.9567955106209 -187.7194386752041 0
287 1 1 1 1 189.1189792543749 -181.5242900228237 0
288 1 1 1 1 208.2834377313411 -184.1560235442142 0
289 1 1 1 1 227.6809154328799 -183.2056778318557 0
290 1 1 1 1 244.8357525585249 -183.9191118951655 0
291 1 1 1 1 261.033787778809 -181.7139470474732 0
292 1 1 1 1 276.6098696156373 -181.3912360976341 0
293 1 1 1 1 295.3026382021658 -186.7097944273233 0
294 1 1 1 1 310.1893467611673 -180.4429250471143 0
295 1 1 1 1 330.4594307000634 -185.3556014859317 0
296 1 1 1 1 342.6808447226122 -186.1648634669715 0
297 1 1 1 1 365.8799927907148 -181.8779352335876 0
298 1 1 1 1 379.7468170663046 -186.3066519352586 0
299 1 1 1 1 400.3554431197821 -184.3615538714696 0
300 1 1 1 1 415.5724823256122 -182.1714506033403 0
301 1 1 1 1 -425.0128258054673 -167.7001666471554 0
302 1 1 1 1 -403.0185253370202 -171.1231530164403 0
303 1 1 1 1 -391.0632952857392 -170.8607946685939 0
304 1 1 1 1 -370.0864966510919 -171.8986681842647 0
305 1 1 1 1 -351.6873641277564 -166.8361134042901 0
306 1 1 1 1 -334.4317488002661 -167.6905732042143 0
307 1 1 1 1 -320.4431073197076 -173.3212830635363 0
308 1 1 1 1 -303.8811665984678 -166.2046983663623 0
309 1 1 1 1 -285.0333251323972 -166.343641546617 0
310 1 1 1 1 -269.3935248594585 -170.317415532716 0
311 1 1 1 1 -252.3780340629603 -169.2795783937094 0
312 1 1 1 1 -235.9912841514031 -168.3136632215729 0
313 1 1 1 1 -215.4172093330191 -170.2797098689202 0
314 1 1 1 1 -198.1405487669564 -172.2098067623377 0
315 1 1 1 1 -178.920832631412 -169.2880176823893 0
316 1 1 1 1 -162.3095953059681 -170.4130589592295 0
317 1 1 1 1 -149.5943738008705 -171.0679910225746 0
318 1 1 1 1 -129.8079008680291 -169.4574683412813 0
319 1 1 1 1 -110.3521550764605 -168.8268801783561 0
320 1 1 1 1 -98.33056619491511 -171.6030041100207 0
321 1 1 1 1 -80.55373717608902 -167.7402096299475 0
322 1 1 1 1 -63.71312430569975 -171.1343310605951 0
323 1 1 1 1 -43.11342819693341 -166.1399313094898 0
324 1 1 1 1 -27.52240751881057 -167.0234383697375 0
325 1 1 1 1 -8.063251653946431 -172.0840935232152 0
326 1 1 1 1 8.451828232637757 -169.9130790233229 0
327 1 1 1 1 26.93652616682402 -168.166983304786 0
328 1 1 1 1 46.63631772866138 -168.2355130707246 0
329 1 1 1 1 60.11047721491334 -166.1815626470304 0
330 1 1 1 1 76.93851198768009 -166.2973937956272 0
331 1 1 1 1 92.53125972832447 -171.2433624762984 0
332 1 1 1 1 114.075143941165 -169.0178725767786 0
333 1 1 1 1 129.952791551332 -171.5146333498161 0
334 1 1 1 1 147.4056933758392 -167.6596873128357 0
335 1 1 1 1 162.4131804967337 -169.2053634474167 0
336 1 1 1 1 182.2681982973216 -165.3761709481208 0
337 1 1 1 1 194.7591602624461 -168.4021247176015 0
338 1 1 1 1 216.5363455758509 -172.8234072097502 0
339 1 1 1 1 231.7654614849129 -173.1640993846119 0
340 1 1 1 1 251.1443573853767 -172.873864637856 0
341 1 1 1 1 268.5770803799915 -167.6701740662041 0
342 1 1 1 1 286.4407079313897 -170.1808880257546 0
343 1 1 1 1 305.3242723723355 -170.0396259743538 0
344 1 1 1 1 321.120950047611 -169.0385984935613 0
345 1 1 1 1 339.5006437956511 -168.2445398881079 0
346 1 1 1 1 357.7607525149028 -167.9736199257245 0
347 1 1 1 1 373.6443605679433 -167.7179303652866 0
348 1 1 1 1 390.1111065790627 -167.776932446021 0
349 1 1 1 1 405.3185968946634 -171.5436026370091 0
350 1 1 1 1 425.755860699458 -168.1273270850744 0
351 1 1 1 1 -432 -154.4455671582343 0
352 1 1 1 1 -415.5769930112822 -155.2094951020434 0
353 1 1 1 1 -398.0360939020349 -154.1401176385821 0
354 1 1 1 1 -376.6200449226133 -155.2896650132464 0
355 1 1 1 1 -365.8052934225661 -157.0553336147968 0
356 1 1 1 1 -345.7361330236844 -151.5268502436907 0
357 1 1 1 1 -327.3045309268765 -158.4508591342108 0
358 1 1 1 1 -311.8191238454704 -157.1162866821744 0
359 1 1 1 1 -290.4952705382609 -155.8911995057707 0
360 1 1 1 1 -274.1602150646027 -152.8705604054696 0
361 1 1 1 1 -260.9482081545976 -155.2635139076723 0
362 1 1 1 1 -238.8576410860771 -154.9722035128436 0
363 1 1 1 1 -227.532677953228 -153.278662662503 0
364 1 1 1 1 -207.5173009842498 -150.5236108109295 0
365 1 1 1 1 -191.8762409308189 -158.1260854883029 0
366 1 1 1 1 -173.4865755890147 -153.4115195344174 0
367 1 1 1 1 -153.4422384739632 -154.2394403476378 0
368 1 1 1 1 -134.7555743185051 -154.8969703001621 0
369 1 1 1 1 -122.7794267539226 -153.0171428316395 0
370 1 1 1 1 -104.7507073108077 -153.3171430770697 0
371 1 1 1 1 -85.76440115595878 -157.3137721493293 0
372 1 1 1 1 -70.72485164251198 -155.665617486038 0
373 1 1 1 1 -55.77809924924292 -153.7802414795293 0
374 1 1 1 1 -31.92010950720527 -151.9167191415382 0
375 1 1 1 1 -18.34639603231116 -156.9125167970987 0
376 1 1 1 1 2.145976684706986 -157.0616390036402 0
377 1 1 1 1 16.19798216953016 -152.1434943702641 0
378 1 1 1 1 38.09812303566787 -154.4448078655838 0
379 1 1 1 1 49.99896868217213 -155.3117528306998 0
380 1 1 1 1 72.29540398628103 -153.5966703877636 0
381 1 1 1 1 89.57327490094393 -153.6681510500737 0
382 1 1 1 1 105.2727589278258 -154.6038576903103 0
383 1 1 1 1 119.0671752134596 -154.7150852374391 0
384 1 1 1 1 139.3573681379446 -155.3957866752593 0
385 1 1 1 1 156.0896811520865 -155.5515249736835 0
386 1 1 1 1 173.9243699919328 -152.9412066762139 0
387 1 1 1 1 187.5900558981424 -157.4545537661801 0
388 1 1 1 1 203.9344312766667 -156.0846687070692 0
389 1 1 1 1 224.0497073018773 -153.6412997164807 0
390 1 1 1 1 241.1445237234737 -155.3382012441042 0
391 1 1 1 1 261.9893332441548 -156.2799072779899 0
392 1 1 1 1 274.003028601836 -152.722067793974 0
393 1 1 1 1 296.9206673232133 -153.0578271459213 0
394 1 1 1 1 313.2778738371252 -152.999862809972 0
395 1 1 1 1 324.4804566713876 -154.0304913997138 0
396 1 1 1 1 344.336547860087 -153.2231264952058 0
397 1 1 1 1 362.1359471960236 -155.2565121772928 0
398 1 1 1 1 378.888033009508 -152.5491718708259 0
399 1 1 1 1 396.1643284793067 -152.4527222374569 0
400 1 1 1 1 414.1793670260783 -153.7114860301113 0
401 1 1 1 1 -425.4489707617262 -136.5547705381316 0
402 1 1 1 1 -407.1678685448502 -135.6831073688297 0
403 1 1 1 1 -390.3541480929534 -137.3128717298517 0
404 1 1 1 1 -368.5203258090324 -140.0156972242901 0
405 1 1 1 1 -352.4907419292718 -140.0907346680348 0
406 1 1 1 1 -339.0710125688869 -139.0659457053322 0
407 1 1 1 1 -315.7473318520558 -138.9251066704607 0
408 1 1 1 1 -301.1001160462949 -141.7637208763392 0
409 1 1 1 1 -285.8743823629993 -140.0285775765674 0
410 1 1 1 1 -265.2708694653474 -139.4447058899916 0
411 1 1 1 1 -248.3846993005 -136.5262548280597 0
412 1 1 1 1 -235.9935704865248 -140.5263575085338 0
413 1 1 1 1 -216.7271664314991 -138.1781782863143 0
414 1 1 1 1 -201.5877509219671 -139.9035477838782 0
415 1 1 1 1 -182.8150107339832 -137.6685855796386 0
416 1 1 1 1 -160.8093703623209 -140.9452867988437 0
417 1 1 1 1 -148.1817236378043 -139.2483296529676 0
418 1 1 1 1 -132.8934254187137 -138.1537589323463 0
419 1 1 1 1 -109.3563186789849 -140.9287238925081 0
420 1 1 1 1 -93.51617508927257 -138.7865193119951 0
421 1 1 1 1 -75.15053739058516 -140.9945084053734 0
422 1 1 1 1 -60.60339665778706 -136.0915375579728 0
423 1 1 1 1 -40.77023770199019 -139.8502195568643 0
424 1 1 1 1 -26.93417915598572 -141.3319275993388 0
425 1 1 1 1 -7.056653845630266 -138.4876970180968 0
426 1 1 1 1 9.165029349156269 -141.4153136831993 0
427 1 1 1 1 28.75630678884311 -138.2146270100781 0
428 1 1 1 1 42.08160260429323 -141.4865107020043 0
429 1 1 1 1 62.77423510836574 -136.2920338975268 0
430 1 1 1 1 77.40852183246719 -142.635382484827 0
431 1 1 1 1 94.82612024281572 -140.7025651567426 0
432 1 1 1 1 113.280610266998 -137.1614687042031 0
433 1 1 1 1 128.0631678524389 -135.8143323720012 0
434 1 1 1 1 149.8890709968994 -139.9655071536421 0
435 1 1 1 1 160.6880901527885 -140.7636401020524 0
436 1 1 1 1 181.9413391231861 -143.4989457068564 0
437 1 1 1 1 200.0728101085082 -141.4616103088438 0
438 1 1 1 1 215.2002329745571 -139.0841845674625 0
439 1 1 1 1 235.747386758516 -137.6236045241895 0
440 1 1 1 1 250.5111199002098 -137.1231630293645 0
441 1 1 1 1 268.45763868866 -138.791193981752 0
442 1 1 1 1 282.6545502775967 -139.7782250860037 0
443 1 1 1 1 301.2144061263605 -141.1788864995035 0
444 1 1 1 1 317.3607299585857 -140.494935087464 0
445 1 1 1 1 335.4813539860056 -140.6222870311467 0
446 1 1 1 1 351.5779526463528 -136.4229667680154 0
447 1 1 1 1 372.6769840448234 -139.4668745234069 0
448 1 1 1 1 388.9491444258365 -138.2386209620175 0
449 1 1 1 1 405.3449429239512 -142.3438386301042 0
450 1 1 1 1 425.5819949576738 -136.165839573822 0
451 1 1 1 1 -432 -124.5157292034441 0
452 1 1 1 1 -410.7494089218092 -124.2859119570231 0
453 1 1 1 1 -398.0661901374701 -124.9477291031009 0
454 1 1 1 1 -382.4887064039536 -121.3310374581773 0
455 1 1 1 1 -363.304231444277 -124.0212425379367 0
456 1 1 1 1 -344.0022577822624 -127.8507654818172 0
457 1 1 1 1 -325.7854447478293 -121.8944449679343 0
458 1 1 1 1 -307.1042454142827 -123.9483094683868 0
459 1 1 1 1 -295.6833733491114 -126.2633228376429 0
460 1 1 1 1 -273.1031707079189 -124.1403870018551 0
461 1 1 1 1 -258.0100079686378 -126.7510999208284 0
462 1 1 1 1 -242.7739733330705 -125.5333442310147 0
463 1 1 1 1 -221.7444071222464 -125.6260486198338 0
464 1 1 1 1 -209.5857714318472 -124.8221092001776 0
465 1 1 1 1 -190.4936263314129 -128.5813316566818 0
466 1 1 1 1 -175.5647052227984 -123.7985727294901 0
467 1 1 1 1 -155.8417997721699 -128.3994621195987 0
468 1 1 1 1 -135.3271330662201 -124.4392259293322 0
469 1 1 1 1 -121.5190799192371 -120.5143555910154 0
470 1 1 1 1 -103.5744465907654 -125.8780878992051 0
471 1 1 1 1 -86.05868215151332 -127.2291069439222 0
472 1 1 1 1 -72.96022837336014 -123.3752008454227 0
473 1 1 1 1 -55.41079457480117 -125.4509843313269 0
474 1 1 1 1 -35.89564596628127 -128.1926938765931 0
475 1 1 1 1 -18.82592388324231 -123.7511127159744 0
476 1 1 1 1 0.2357241966261509 -125.0261956765185 0
477 1 1 1 1 13.55479397902082 -126.1638092494144 0
478 1 1 1 1 33.37229067345644 -121.619745646439 0
479 1 1 1 1 54.0889381663773 -121.1725113251969 0
480 1 1 1 1 65.35972117797277 -125.4897497608259 0
481 1 1 1 1 86.31491853089885 -124.4465209120693 0
482 1 1 1 1 101.8300900884233 -121.9015450287573 0
483 1 1 1 1 124.4410683740889 -125.6743558885379 0
484 1 1 1 1 139.1330910189688 -127.1574404218557 0
485 1 1 1 1 153.9700317147437 -124.2274677151989 0
486 1 1 1 1 173.1624752886202 -125.5642104517431 0
487 1 1 1 1 187.925993124864 -124.8373830576201 0
488 1 1 1 1 204.3672271399351 -126.5007661383421 0
489 1 1 1 1 224.0117040347303 -123.8012010967435 0
490 1 1 1 1 239.5045453953377 -126.9613828924386 0
491 1 1 1 1 262.7931208209088 -125.968461811649 0
492 1 1 1 1 274.8604574851462 -127.0057764990169 0
493 1 1 1 1 291.2633444190826 -123.5094327413507 0
494 1 1 1 1 308.3473635171829 -123.2824925352826 0
495 1 1 1 1 328.4840095656715 -127.7990337631461 0
496 1 1 1 1 341.9161213044898 -123.2113674910518 0
497 1 1 1 1 366.4431001198259 -123.2484956510062 0
498 1 1 1 1 379.3067027829685 -125.3901016226537 0
499 1 1 1 1 400.0404708416546 -121.6344355496615 0
500 1 1 1 1 414.2183357243075 -123.4658638450961 0
501 1 1 1 1 -423.2200534055409 -105.7836121469916 0
502 1 1 1 1 -406.4820301546359 -109.0479299361696 0
503 1 1 1 1 -386.5634679790986 -110.5429367785419 0
504 1 1 1 1 -372.6818592744904 -111.5748871243705 0
505 1 1 1 1 -353.6548551727156 -110.3594008503914 0
506 1 1 1 1 -339.1990750494748 -112.6978250215592 0
507 1 1 1 1 -319.8270192256522 -112.5873629659006 0
508 1 1 1 1 -301.8514586510855 -108.2068403461171 0
509 1 1 1 1 -283.4891579311495 -108.0725590849731 0
510 1 1 1 1 -268.7871348093093 -108.9663412562296 0
511 1 1 1 1 -249.2733304538518 -105.8209375986035 0
512 1 1 1 1 -233.3287755255068 -110.5520720890904 0
513 1 1 1 1 -214.148986197851 -111.7624758158339 0
514 1 1 1 1 -197.1250360875437 -109.264115634175 0
515 1 1 1 1 -184.36854725307 -107.8798763831774 0
516 1 1 1 1 -160.8430023774855 -110.6799557336527 0
517 1 1 1 1 -143.0248473620115 -110.5101816613492 0
518 1 1 1 1 -132.4973688722409 -112.5083973083275 0
519 1 1 1 1 -109.2041902390598 -111.4882707409481 0
520 1 1 1 1 -95.69432745298551 -110.1727663631698 0
521 1 1 1 1 -77.5167671447487 -110.943206000586 0
522 1 1 1 1 -59.15309639370089 -111.4401377264784 0
523 1 1 1 1 -43.11326663571395 -113.2736520591524 0
524 1 1 1 1 -25.22585904599486 -107.8868300828329 0
525 1 1 1 1 -8.446911045128253 -113.6437738181053 0
526 1 1 1 1 8.064127533307275 -109.0565594265975 0
527 1 1 1 1 29.95444989562083 -109.6477139028729 0
528 1 1 1 1 45.93481810500245 -109.8025926307556 0
529 1 1 1 1 63.75667747886238 -112.0172922687992 0
530 1 1 1 1 80.03325588905716 -111.3185117461587 0
531 1 1 1 1 93.21711428116996 -110.273545834419 0
532 1 1 1 1 110.6290207007844 -107.2316334186682 0
533 1 1 1 1 125.9411578389195 -109.3439437519838 0
534 1 1 1 1 143.2512810087158 -108.7338450939273 0
535 1 1 1 1 166.2895156244057 -109.2713522455028 0
536 1 1 1 1 180.7437385834028 -105.603808401916 0
537 1 1 1 1 199.8538858365747 -109.2522040755722 0
538 1 1 1 1 219.8799521309312 -110.6979571289905 0
539 1 1 1 1 229.8738283216945 -107.2356682028013 0
540 1 1 1 1 250.414689299081 -110.1563975876443 0
541 1 1 1 1 268.0079220492469 -108.6677796977005 0
542 1 1 1 1 283.6718993805305 -106.5366825642786 0
543 1 1 1 1 304.6964282577426 -109.2345314911035 0
544 1 1 1 1 317.6788238300634 -109.8446533003138 0
545 1 1 1 1 340.1409333096735 -108.451108552077 0
546 1 1 1 1 352.1986156764986 -109.6685526847404 0
547 1 1 1 1 370.7947650038985 -108.184303373429 0
548 1 1 1 1 392.139354286621 -108.6181752822339 0
549 1 1 1 1 403.3442316718872 -106.8589130473143 0
550 1 1 1 1 425.033418281941 -110.525534502463 0
551 1 1 1 1 -432 -94.58589124865388 0
552 1 1 1 1 -412.8043217840462 -94.3373902665512 0
553 1 1 1 1 -395.2355497655644 -95.19087064997369 0
554 1 1 1 1 -380.9707377654661 -93.68404321995 0
555 1 1 1 1 -361.0552698048917 -96.69690109366684 0
556 1 1 1 1 -345.2778542228567 -98.12908055439694 0
557 1 1 1 1 -328.4499784652977 -93.03707909871311 0
558 1 1 1 1 -308.5555294733518 -96.95791844985645 0
559 1 1 1 1 -295.1722848981066 -90.80329468486187 0
560 1 1 1 1 -276.0060886499487 -95.28174268786617 0
561 1 1 1 1 -255.9721533362338 -93.50626961533629 0
562 1 1 1 1 -240.9316605863297 -91.75073054579792 0
563 1 1 1 1 -226.0228323267523 -92.9582476113206 0
564 1 1 1 1 -203.4655762171193 -95.13586867703452 0
565 1 1 1 1 -187.4182107538231 -92.44893998404959 0
566 1 1 1 1 -173.6150746657875 -94.11386563520172 0
567 1 1 1 1 -158.8800317744342 -95.91939692848061 0
568 1 1 1 1 -138.466354098204 -96.72961595002383 0
569 1 1 1 1 -121.3963891150748 -94.59898613344035 0
570 1 1 1 1 -102.9274553939426 -97.29130983435385 0
571 1 1 1 1 -85.28776560944243 -97.22815783238532 0
572 1 1 1 1 -70.93036912923013 -95.43364772626127 0
573 1 1 1 1 -54.38293764290326 -92.3037251259393 0
574 1 1 1 1 -32.30155072436005 -94.62145204508238 0
575 1 1 1 1 -18.12960171648669 -96.12448307281719 0
576 1 1 1 1 -1.829267202965861 -97.35470318389743 0
577 1 1 1 1 18.09765605796471 -98.04248700041565 0
578 1 1 1 1 33.12572745651115 -98.10393300517067 0
579 1 1 1 1 55.63015562733912 -93.34827472136871 0
580 1 1 1 1 65.29627231270973 -93.50448007286444 0
581 1 1 1 1 83.02269166524592 -93.08339171323534 0
582 1 1 1 1 104.2377836142691 -96.57379692843067 0
583 1 1 1 1 119.5653247794615 -93.16395100813976 0
584 1 1 1 1 139.4398063458117 -94.13968378055573 0
585 1 1 1 1 155.645738626692 -92.72263433631996 0
586 1 1 1 1 171.1303241942003 -96.66089499172436 0
587 1 1 1 1 191.5012343546376 -93.58288308124479 0
588 1 1 1 1 205.5892826928719 -91.25506908911865 0
589 1 1 1 1 221.8013669983037 -94.68461868981999 0
590 1 1 1 1 240.6976864734619 -96.87777037473732 0
591 1 1 1 1 256.5245121474528 -93.65631210182477 0
592 1 1 1 1 275.4894704100636 -90.88607292693838 0
593 1 1 1 1 297.5989960377858 -94.25895807222901 0
594 1 1 1 1 311.731607391815 -91.49133405681106 0
595 1 1 1 1 329.5388171019568 -96.7349809477701 0
596 1 1 1 1 344.4589399447154 -98.09159656554778 0
597 1 1 1 1 364.9478040695823 -97.15923414266916 0
598 1 1 1 1 380.909550707852 -94.42814324399275 0
599 1 1 1 1 394.9270346521545 -95.46908142830884 0
600 1 1 1 1 415.2568950872397 -93.40888573820489 0
601 1 1 1 1 -422.7294571621161 -75.764345361292 0