

8607 atoms
22187 bonds
1 atom types
1 bond types
-720 720 xlo xhi
-432 432 ylo yhi
-32 32 zlo zhi

Atoms #bpm/sphere

1 1 1 1 1 230.5036113116996 -329.4169674758357 0
2 1 1 1 1 152.3265960689784 178.897089629805 0
3 1 1 1 1 570.0286966924086 -318.6694674052562 0
4 1 1 1 1 239.0393156788857 83.99825239930522 0
5 1 1 1 1 -172.8926116721834 199.7048175266898 0
6 1 1 1 1 472.3669008636578 -99.36780640711527 0
7 1 1 1 1 99.51475510514979 -430.645555861933 0
8 1 1 1 1 -259.3384638209972 -69.77485880523926 0
9 1 1 1 1 343.005383399827 -223.8020577849683 0
10 1 1 1 1 -306.7571680802413 212.9019453187938 0
11 1 1 1 1 687.9894931234423 297.1393806506926 0
12 1 1 1 1 -143.1746091153711 83.43049626470759 0
13 1 1 1 1 540.9126969794279 296.4126215108171 0
14 1 1 1 1 -572.8773289020339 172.1957240027822 0
15 1 1 1 1 628.8806118484597 87.52303465115369 0
16 1 1 1 1 -187.634822229351 81.25960452696427 0
17 1 1 1 1 -94.38403001745257 -240.9056159869163 0
18 1 1 1 1 -716.1378967627696 -331.5129593022197 0
19 1 1 1 1 185.9996326570599 -59.95659020513608 0
20 1 1 1 1 -619.6613353920745 -288.4121125933543 0
21 1 1 1 1 225.9865890240434 -187.6912889604274 0
22 1 1 1 1 -63.10104473918534 -72.68273580226952 0
23 1 1 1 1 180.0231681800079 -87.34722629795772 0
24 1 1 1 1 -315.1862427004766 166.8595941280728 0
25 1 1 1 1 -199.5473005860507 147.6587017749283 0
26 1 1 1 1 -373.1503022145383 43.24151657990143 0
27 1 1 1 1 49.07981183649906 -199.3917088283936 0
28 1 1 1 1 -571.6899030376078 27.53404564919242 0
29 1 1 1 1 659.2570297405628 429.5399970109754 0
30 1 1 1 1 -230.9533719889902 189.5653724591298 0
31 1 1 1 1 -165.3709695746634 68.1980710805646 0
32 1 1 1 1 -196.4571898480496 129.3809312315569 0
33 1 1 1 1 4.165036545899625 -27.62313762257764 0
34 1 1 1 1 326.9765015019964 301.9361453068757 0
35 1 1 1 1 672.3691487973686 -382.9632311836247 0
36 1 1 1 1 385.1558180416312 268.0333384295981 0
37 1 1 1 1 666.4970054497214 -259.5847160302898 0
38 1 1 1 1 -480.4206267177674 37.63607455880219 0
39 1 1 1 1 -306.6521938520746 -189.2557092900738 0
40 1 1 1 1 -25.76233462451705 368.1522336223032 0
41 1 1 1 1 427.2977059018137 -298.0057113366843 0
42 1 1 1 1 72.86400814597187 407.2806832128765 0
43 1 1 1 1 75.80490705331965 289.8341729991059 0
44 1 1 1 1 -531.9307159711866 -393.944760886575 0
45 1 1 1 1 316.5443937860555 -110.76897412912 0
46 1 1 1 1 573.5059952894026 61.87309868025852 0
47 1 1 1 1 -597.6873236209631 -212.9885104066526 0
48 1 1 1 1 509.4192474300239 -244.0828903082558 0
49 1 1 1 1 170.9639862033139 4.975394261039867 0
50 1 1 1 1 -249.6498131982667 -362.3762710395281 0
51 1 1 1 1 -123.9540737057198 152.8539753978077 0
52 1 1 1 1 374.7388078239592 86.08281966330333 0
53 1 1 1 1 -626.6710142510219 132.5810369788771 0
54 1 1 1 1 696.3644720303482 104.1829114513672 0
55 1 1 1 1 24.60960930496663 39.82219197343909 0
56 1 1 1 1 594.8435682400684 88.61882830033812 0
57 1 1 1 1 40.6062984788872 -6.905239061625537 0
58 1 1 1 1 325.5758156302402 -200.6194787679208 0
59 1 1 1 1 570.3629292385831 403.7267823174165 0
60 1 1 1 1 612.6015085245115 20.74152872980574 0
61 1 1 1 1 254.9023177605907 -117.4039806815343 0
62 1 1 1 1 144.2095417859819 -402.429757643517 0
63 1 1 1 1 408.9158868381785 211.5580473715431 0
64 1 1 1 1 542.2811997148551 3.022178755047435 0
65 1 1 1 1 555.5720349055978 -225.3479932425619 0
66 1 1 1 1 -533.0933108463361 -275.5880642085762 0
67 1 1 1 1 694.6712134541192 -405.646655350894 0
68 1 1 1 1 -265.6790442471458 -278.4586746036795 0
69 1 1 1 1 450.3444333490559 235.6086849007202 0
70 1 1 1 1 497.8113426487264 -367.2126754359564 0
71 1 1 1 1 -112.7625644916498 -338.3600475078659 0
72 1 1 1 1 -33.64403382612534 147.5853169451092 0
73 1 1 1 1 -295.1602893635403 225.2114717607858 0
74 1 1 1 1 -163.4981940207528 -111.3914439597533 0
75 1 1 1 1 -136.893141303641 343.834897178439 0
76 1 1 1 1 26.58942347041648 163.2532618338106 0
77 1 1 1 1 289.572418893698 415.2939626814002 0
78 1 1 1 1 -349.4232788268631 265.6264027171779 0
79 1 1 1 1 125.817458659971 169.6371666044342 0
80 1 1 1 1 -371.1313454687641 -142.6895374843182 0
81 1 1 1 1 649.4741375291576 -138.0699078701238 0
82 1 1 1 1 194.3197799283912 109.3344359110732 0
83 1 1 1 1 -73.94623553146096 -70.98982424957291 0
84 1 1 1 1 -366.7755370875385 338.4946775938628 0
85 1 1 1 1 590.8776113444117 -209.4682263206054 0
86 1 1 1 1 -104.7179121252855 202.3163708488445 0
87 1 1 1 1 655.6960194521307 -197.7516872410568 0
88 1 1 1 1 -139.9892105761401 -315.189170498979 0
89 1 1 1 1 -698.5068150896336 -68.03462481236716 0
90 1 1 1 1 656.441128306775 -152.8612262859975 0
91 1 1 1 1 691.6824118716452 -425.6051704130452 0
92 1 1 1 1 376.12920947718 -229.8594412741282 0
93 1 1 1 1 183.3247774919464 50.78856713820926 0
94 1 1 1 1 677.6835671815309 411.5916916125829 0
95 1 1 1 1 -615.5937017818048 21.73484393592923 0
96 1 1 1 1 -676.4881944484696 -199.1534474039811 0
97 1 1 1 1 -482.8956820313945 -199.5603748349744 0
98 1 1 1 1 -317.7584727809411 404.5882793596641 0
99 1 1 1 1 509.7387072741644 113.6238093225456 0
100 1 1 1 1 525.9255260803743 7.091930049767768 0
101 1 1 1 1 -394.9524345435727 -32.31384396853559 0
102 1 1 1 1 -672.887551293393 -223.1420406221884 0
103 1 1 1 1 428.1266470498117 -198.3642116316688 0
104 1 1 1 1 706.2555443113861 -156.231179238105 0
105 1 1 1 1 250.4898770020618 -16.24392814478404 0
106 1 1 1 1 294.2935953448985 37.8260456502934 0
107 1 1 1 1 474.8681834102561 -48.07857198943242 0
108 1 1 1 1 -225.6159658216503 403.8209561828039 0
109 1 1 1 1 -645.4513194910512 401.8775987203077 0
110 1 1 1 1 144.9265562353131 407.1215233839342 0
111 1 1 1 1 244.0442209424209 -189.2700580983098 0
112 1 1 1 1 203.4675768743763 -260.2746349518167 0
113 1 1 1 1 500.3085163635451 -317.2685757216119 0
114 1 1 1 1 403.5353329514305 -119.3704077445033 0
115 1 1 1 1 353.5911634275626 -307.1168410991659 0
116 1 1 1 1 -220.7937625367352 375.0875653568851 0
117 1 1 1 1 -684.6048067880179 302.0351093172141 0
118 1 1 1 1 -523.0727178730505 -127.5021880529422 0
119 1 1 1 1 -473.3737129346704 -256.5194477650841 0
120 1 1 1 1 105.5664949612503 384.4289136605653 0
121 1 1 1 1 91.99042686675136 -310.3072530473245 0
122 1 1 1 1 -562.8603904571992 222.4269177257645 0
123 1 1 1 1 -337.589878257533 259.2490684516547 0
124 1 1 1 1 -175.2459153783043 41.80266308115182 0
125 1 1 1 1 -360.990782380548 224.5506177832649 0
126 1 1 1 1 -691.8400327804982 103.228354157784 0
127 1 1 1 1 -217.6016653514159 -284.8688738083956 0
128 1 1 1 1 -536.9405520887469 -9.685303098760301 0
129 1 1 1 1 -284.8657214562003 -240.004799920824 0
130 1 1 1 1 284.3656013168524 396.8204391538731 0
131 1 1 1 1 -268.3035972099588 -114.0438259820095 0
132 1 1 1 1 -281.4934553397522 -414.6963120645622 0
133 1 1 1 1 39.9060180362842 288.0138166630962 0
134 1 1 1 1 285.072392561745 -178.5914119186192 0
135 1 1 1 1 -133.3833661616148 -164.0905651652096 0
136 1 1 1 1 409.2739142858875 -321.8055260389734 0
137 1 1 1 1 528.926649446995 -263.1259770438328 0
138 1 1 1 1 -302.5560435855554 342.8134103828288 0
139 1 1 1 1 -681.1133207489526 -45.87008819400353 0
140 1 1 1 1 522.9234041761217 -316.9651696554851 0
141 1 1 1 1 -494.718335596476 -20.96423044084003 0
142 1 1 1 1 341.319034457779 374.2072596558256 0
143 1 1 1 1 -699.6900147775812 -392.6645474442726 0
144 1 1 1 1 -246.8757787762334 -174.3011541831661 0
145 1 1 1 1 314.8255196032196 -427.9387996387923 0
146 1 1 1 1 561.8521047620316 -7.172765278351335 0
147 1 1 1 1 -318.6835128888292 -300.5848934968118 0
148 1 1 1 1 34.15894803826416 374.8633444784638 0
149 1 1 1 1 78.88983360629879 124.4686205899226 0
150 1 1 1 1 392.3245128631224 127.5571418151453 0
151 1 1 1 1 713.8053015650198 425.3087101942037 0
152 1 1 1 1 470.9534975415945 -303.6615725465897 0
153 1 1 1 1 -575.0830076162069 -404.8835208330014 0
154 1 1 1 1 -538.8790636838605 401.2557579729507 0
155 1 1 1 1 -635.6897665462119 252.1840738937376 0
156 1 1 1 1 644.7186083083373 -268.892942677845 0
157 1 1 1 1 -691.4609335929716 11.06623083084423 0
158 1 1 1 1 -623.2186454268809 344.8465512045748 0
159 1 1 1 1 -74.17615549916081 -209.9786265212651 0
160 1 1 1 1 -475.2573218347388 -354.5985016065226 0
161 1 1 1 1 361.842598070217 -34.25626072866066 0
162 1 1 1 1 -247.0067212483963 -103.7935621198304 0
163 1 1 1 1 423.3272766268954 334.6619170149719 0
164 1 1 1 1 372.9691146600555 223.5802374121854 0
165 1 1 1 1 -321.7450214521677 242.4846094067823 0
166 1 1 1 1 -66.69839475868923 -150.5581803675682 0
167 1 1 1 1 425.6258446338659 -407.5517729091095 0
168 1 1 1 1 -465.1265731760033 -320.4093304056428 0
169 1 1 1 1 -148.6637738791872 339.7934926319081 0
170 1 1 1 1 617.4449341324364 290.582861952711 0
171 1 1 1 1 -313.3435791911011 -242.9458168585891 0
172 1 1 1 1 421.9014066308116 -339.7902598497931 0
173 1 1 1 1 629.2099877467917 -54.53590161448403 0
174 1 1 1 1 -383.4097310055213 7.738698060739523 0
175 1 1 1 1 -28.29509571464257 293.8405362098937 0
176 1 1 1 1 -640.1120450995421 94.97878205275345 0
177 1 1 1 1 -200.8518436772271 157.5910048160638 0
178 1 1 1 1 668.891496073978 -104.9056461512068 0
179 1 1 1 1 -406.3477236240252 -415.1706217557756 0
180 1 1 1 1 -435.9726521158185 288.926251298646 0
181 1 1 1 1 -374.7353306796661 303.8643295040979 0
182 1 1 1 1 -613.1506117753329 -85.79404107563488 0
183 1 1 1 1 -30.90556588594689 -393.5929744164924 0
184 1 1 1 1 -416.4875699185907 304.0114558311017 0
185 1 1 1 1 -599.3308028038784 16.51198139054117 0
186 1 1 1 1 715.0094965260057 -78.44089141771212 0
187 1 1 1 1 -334.7345402211991 323.8888891603984 0
188 1 1 1 1 45.0412625916847 254.8137121731733 0
189 1 1 1 1 -600.5791303558221 -294.3058369609601 0
190 1 1 1 1 205.0320232256792 352.6103432994164 0
191 1 1 1 1 -277.6857964544872 -365.3274453202959 0
192 1 1 1 1 715.5073736430129 -229.8443471769155 0
193 1 1 1 1 448.7219924543674 73.43298230676754 0
194 1 1 1 1 17.21338698149191 159.4006112978121 0
195 1 1 1 1 -343.4690380130252 -260.1732988664627 0
196 1 1 1 1 -703.0717278526901 -87.40807571330367 0
197 1 1 1 1 595.0926860427383 128.7383411376175 0
198 1 1 1 1 -535.5877509245909 117.6752511046051 0
199 1 1 1 1 643.0114851007647 46.64602984350114 0
200 1 1 1 1 529.5018079236729 -150.4335491613981 0
201 1 1 1 1 561.6290948860662 181.5925377636571 0
202 1 1 1 1 536.2470669049872 29.48999076103462 0
203 1 1 1 1 169.907093995081 -274.0181176961935 0
204 1 1 1 1 -180.8266524506566 -94.14375089212757 0
205 1 1 1 1 -118.1756316979642 344.3339675770568 0
206 1 1 1 1 540.6318006930414 -111.0437359000524 0
207 1 1 1 1 480.0447561499705 339.3010690002276 0
208 1 1 1 1 623.0897911588852 55.56857481660256 0
209 1 1 1 1 600.942792973618 69.29810286276285 0
210 1 1 1 1 670.2720679572394 -349.0714289393654 0
211 1 1 1 1 217.333752475339 261.3801658717371 0
212 1 1 1 1 -264.3372387398865 415.264846157025 0
213 1 1 1 1 361.827003613344 112.6180325959587 0
214 1 1 1 1 -672.0385409387659 -303.5803194559838 0
215 1 1 1 1 -435.4912764101973 128.7502380865897 0
216 1 1 1 1 426.2455015770397 -43.31206652441961 0
217 1 1 1 1 528.4366869731716 -431.0893906926945 0
218 1 1 1 1 -20.48816142201088 26.73265806984472 0
219 1 1 1 1 405.3516702554157 -89.19819456698781 0
220 1 1 1 1 265.6799173665281 271.8323377777734 0
221 1 1 1 1 -485.4864677866864 284.5717146785394 0
222 1 1 1 1 430.3511924690331 95.13350034281257 0
223 1 1 1 1 340.8529883679005 -425.270032165895 0
224 1 1 1 1 365.6043341773434 -245.8562768612467 0
225 1 1 1 1 29.13143807907545 104.6294843127914 0
226 1 1 1 1 262.3898717802238 371.0912802642133 0
227 1 1 1 1 36.82418679234127 306.8846160230374 0
228 1 1 1 1 -80.44656446682461 279.9985621065074 0
229 1 1 1 1 -203.3799900216184 381.6248181394515 0
230 1 1 1 1 373.4627438894709 -206.1320366899394 0
231 1 1 1 1 -350.8125620704088 193.6892287052392 0
232 1 1 1 1 -664.0775995510882 353.9975698474303 0
233 1 1 1 1 117.5119023189926 410.8326066184377 0
234 1 1 1 1 -418.5758776353803 149.5543925410249 0
235 1 1 1 1 -71.1498894902453 300.4310898516512 0
236 1 1 1 1 -549.6202153916934 -140.9371413099825 0
237 1 1 1 1 -53.59999370140565 -242.0140709060503 0
238 1 1 1 1 -619.1054553610502 146.8941898271116 0
239 1 1 1 1 -100.4295562996122 97.27569677719305 0
240 1 1 1 1 -674.3019525746116 92.29014115936627 0
241 1 1 1 1 144.3279798109858 191.2856240309075 0
242 1 1 1 1 -692.6902755940284 -31.67884199671357 0
243 1 1 1 1 635.4933333636338 -262.1432702052872 0
244 1 1 1 1 412.6920493682837 -110.2758643155604 0
245 1 1 1 1 676.9900767327492 107.1382850528664 0
246 1 1 1 1 323.2574264071614 -359.5313980080606 0
247 1 1 1 1 354.9487527120566 77.81293812897934 0
248 1 1 1 1 -713.3496108205271 9.170027018020505 0
249 1 1 1 1 -301.9005740878322 -217.439909602358 0
250 1 1 1 1 104.6282348457357 -182.5637141428302 0
251 1 1 1 1 -192.0133511301794 409.5822452270605 0
252 1 1 1 1 337.9290278563669 293.9074362640819 0
253 1 1 1 1 -219.9915163548615 -388.810132032101 0
254 1 1 1 1 -231.7713600953881 370.6032095610536 0
255 1 1 1 1 -32.28862797896704 -5.565766409823368 0
256 1 1 1 1 -623.307498196885 -179.6098915081803 0
257 1 1 1 1 312.0812770017701 139.0793761844567 0
258 1 1 1 1 -108.061907486567 -410.1366646285986 0
259 1 1 1 1 17.88990524885458 118.2229328327154 0
260 1 1 1 1 -300.2018803693031 -349.4134305827611 0
261 1 1 1 1 -238.9913726873443 -83.85098706424185 0
262 1 1 1 1 -285.9067180480856 -260.9236168982 0
263 1 1 1 1 324.3636664133196 -223.3572516358276 0
264 1 1 1 1 351.806805865753 -426.9913406834899 0
265 1 1 1 1 -304.3521191601411 -423.3794483505762 0
266 1 1 1 1 97.15636201961411 -226.9776923023965 0
267 1 1 1 1 529.120572741622 382.1357975915821 0
268 1 1 1 1 -557.0480351138409 52.15566776772857 0
269 1 1 1 1 201.1479469128384 -322.6706617982988 0
270 1 1 1 1 -42.71813542257485 -114.1130673030245 0
271 1 1 1 1 -310.5684978424846 297.8681600190569 0
272 1 1 1 1 -391.0849107694165 -260.9144076109127 0
273 1 1 1 1 -12.68891024271466 -346.4160692249747 0
274 1 1 1 1 214.9285021776021 235.5637767674152 0
275 1 1 1 1 -60.21121201307699 337.0292996148046 0
276 1 1 1 1 -203.2572294808299 -274.176204403204 0
277 1 1 1 1 -437.8412349311498 203.0986393116589 0
278 1 1 1 1 8.389538678310942 -431.7540066922993 0
279 1 1 1 1 337.000475515988 -200.5706249578672 0
280 1 1 1 1 -676.294046197504 103.9022267618102 0
281 1 1 1 1 -297.5643735505984 259.8767792592283 0
282 1 1 1 1 -404.9104254128782 394.6001279988799 0
283 1 1 1 1 -398.0220097232894 -83.33758185040068 0
284 1 1 1 1 -137.1326814306814 -382.7306153508074 0
285 1 1 1 1 293.9546020500404 -104.6485774109417 0
286 1 1 1 1 -335.4052969878727 -210.4192477339366 0
287 1 1 1 1 670.3678991763832 -22.84102960644634 0
288 1 1 1 1 -599.9292929274826 68.2333446291122 0
289 1 1 1 1 421.1289895079633 301.8541708736254 0
290 1 1 1 1 -139.7136885329591 -56.64165550464713 0
291 1 1 1 1 -94.56817715591751 23.46043668115692 0
292 1 1 1 1 138.8539596437794 79.8777316068979 0
293 1 1 1 1 -583.9889137680824 425.9774606084171 0
294 1 1 1 1 478.8592860129697 242.4650426613837 0
295 1 1 1 1 647.576772013432 403.7698280222328 0
296 1 1 1 1 -429.5256214193238 -108.4828471506827 0
297 1 1 1 1 171.8062465396619 341.8939490523488 0
298 1 1 1 1 243.1603672606093 -430.8733951581339 0
299 1 1 1 1 -103.8987041040315 -235.4285572562929 0
300 1 1 1 1 -484.7870918087157 374.8281885903307 0
301 1 1 1 1 -301.7800232711018 275.4818422982519 0
302 1 1 1 1 467.2786945492483 -261.6574649589637 0
303 1 1 1 1 -117.5162459037687 260.6880380482992 0
304 1 1 1 1 -559.8915464970861 125.2799749938506 0
305 1 1 1 1 -318.2525908040574 53.20956468432718 0
306 1 1 1 1 -597.2777471301761 -416.4490306405754 0
307 1 1 1 1 158.7548991921426 384.9878960838098 0
308 1 1 1 1 356.7739379621878 359.4980233896037 0
309 1 1 1 1 660.7746166922384 -323.0635788145672 0
310 1 1 1 1 -682.4221845461078 389.6754391149353 0
311 1 1 1 1 -596.5962173486151 -228.9914124332094 0
312 1 1 1 1 661.0379832452577 -290.0351705893297 0
313 1 1 1 1 -408.9353379876009 -16.85398780532245 0
314 1 1 1 1 -452.6610442972859 253.9433351143691 0
315 1 1 1 1 -307.2058085760824 -331.6293966552175 0
316 1 1 1 1 119.6580241800932 185.6053488595652 0
317 1 1 1 1 -629.2143416515257 76.59729861431407 0
318 1 1 1 1 -109.2434986314756 338.1231260077288 0
319 1 1 1 1 -83.3508137310514 -344.0082897418237 0
320 1 1 1 1 -206.4506897488284 -412.8722903358199 0
321 1 1 1 1 601.9298039355406 -426.3919381469737 0
322 1 1 1 1 64.9078710187481 -412.9154485884935 0
323 1 1 1 1 -335.4109700754266 -181.777391808557 0
324 1 1 1 1 588.3128324638276 15.19701564802568 0
325 1 1 1 1 703.3336285357539 350.2979732198206 0
326 1 1 1 1 560.7611913968133 -54.86135330067384 0
327 1 1 1 1 -564.7062427075941 -232.0901732770877 0
328 1 1 1 1 155.2046051929073 8.032341052714401 0
329 1 1 1 1 -36.85808384769234 66.11638841083902 0
330 1 1 1 1 508.6457384839709 329.9061289082692 0
331 1 1 1 1 -524.5823021282597 110.1111588115958 0
332 1 1 1 1 -87.46461109966117 -257.1840505672339 0
333 1 1 1 1 492.0523670684711 317.8816972215648 0
334 1 1 1 1 -68.25804372621622 -339.8420739896372 0
335 1 1 1 1 402.1717727477615 -369.781609655814 0
336 1 1 1 1 -210.7919507744213 166.0326131601067 0
337 1 1 1 1 -389.2948439629199 50.73547150984558 0
338 1 1 1 1 -264.7508260318098 270.6567195158135 0
339 1 1 1 1 -316.8821325901605 -134.9897276212174 0
340 1 1 1 1 -540.4186250124449 374.126152306409 0
341 1 1 1 1 -570.0445870326079 131.851174752738 0
342 1 1 1 1 465.1667362628646 297.2841845739101 0
343 1 1 1 1 -517.4632444376412 194.7691579157572 0
344 1 1 1 1 234.8374547524455 264.9434971792671 0
345 1 1 1 1 -627.2245396947321 -352.4310372071725 0
346 1 1 1 1 565.676202746532 -300.4101538724119 0
347 1 1 1 1 -122.7223193472371 315.8970744490956 0
348 1 1 1 1 -52.19099737070928 -35.81620610266174 0
349 1 1 1 1 408.6214674045161 -45.74053098291569 0
350 1 1 1 1 -541.8022948529633 -395.9103119927081 0
351 1 1 1 1 -421.8561114295609 320.2609079570407 0
352 1 1 1 1 -679.9857968573033 -401.4115521601694 0
353 1 1 1 1 72.58586205932977 -264.0828526740896 0
354 1 1 1 1 408.6853351702721 163.5523715382032 0
355 1 1 1 1 158.9903553767584 350.5528155228476 0
356 1 1 1 1 -144.4733582453082 371.1732853117732 0
357 1 1 1 1 -260.9157413314571 365.6896822634711 0
358 1 1 1 1 75.48377803275639 164.3959791619277 0
359 1 1 1 1 184.7826245941008 -170.5104178205559 0
360 1 1 1 1 -182.5322175648978 113.2075452884568 0
361 1 1 1 1 702.4220263787247 254.7482052883173 0
362 1 1 1 1 585.4498679521457 -90.02070336922827 0
363 1 1 1 1 -166.390656912481 416.8945059224531 0
364 1 1 1 1 -205.2789864242578 405.2428223089914 0
365 1 1 1 1 433.5171857267092 -154.463504214596 0
366 1 1 1 1 -353.5359087541811 389.856990776613 0
367 1 1 1 1 -626.5546890530426 -263.2717997027389 0
368 1 1 1 1 596.3416517814785 -94.82505211200862 0
369 1 1 1 1 -296.7931773029259 -197.1381269871646 0
370 1 1 1 1 184.6604191474769 248.3895913808898 0
371 1 1 1 1 476.9324820557429 184.2019796267989 0
372 1 1 1 1 716.7350355947037 32.2982958325394 0
373 1 1 1 1 -414.0964502189854 -32.97105948474348 0
374 1 1 1 1 -193.7872733099127 -307.3572910211256 0
375 1 1 1 1 34.21125921218493 -343.623241540058 0
376 1 1 1 1 -215.6836619443753 91.74546298369819 0
377 1 1 1 1 371.8335111562774 -168.3753347520456 0
378 1 1 1 1 75.06395265228639 -172.2510056713207 0
379 1 1 1 1 73.42035513682038 -106.3667235533391 0
380 1 1 1 1 -262.5256282505451 343.244022636397 0
381 1 1 1 1 668.2293299821574 -136.8936300767101 0
382 1 1 1 1 -364.7884593660301 128.4080834570181 0
383 1 1 1 1 11.99214454275978 -343.1231580331686 0
384 1 1 1 1 -400.9902354998569 267.7431193298685 0
385 1 1 1 1 -334.3224226474652 -84.89634978127862 0
386 1 1 1 1 73.13692439560646 -386.0610170694679 0
387 1 1 1 1 -421.8268720410119 265.3883220851493 0
388 1 1 1 1 594.1501557156112 311.2208471601844 0
389 1 1 1 1 421.1250232533125 -252.9062502196748 0
390 1 1 1 1 66.1682216369511 -139.6860111637749 0
391 1 1 1 1 674.9229127256397 321.5384626107718 0
392 1 1 1 1 -613.4755834656811 -74.37087014131703 0
393 1 1 1 1 -387.9862827744964 -205.4610401975551 0
394 1 1 1 1 262.3600475365647 -307.9180476989509 0
395 1 1 1 1 719.6626344892493 163.741939918597 0
396 1 1 1 1 -135.6382253923043 316.6218342353814 0
397 1 1 1 1 -23.05296922647915 -431.0374303481522 0
398 1 1 1 1 211.7607224097588 333.839434731477 0
399 1 1 1 1 -423.099271131224 -85.70087822714396 0
400 1 1 1 1 704.576542848238 -366.4625694445985 0
401 1 1 1 1 63.44108799341564 10.50069721338758 0
402 1 1 1 1 -144.9807049575657 104.6680118395605 0
403 1 1 1 1 -381.0308473483721 90.52297562731053 0
404 1 1 1 1 -443.7223657544483 98.08648488520475 0
405 1 1 1 1 376.9478807156283 -5.916244538711055 0
406 1 1 1 1 355.9000706910024 -241.3990190258611 0
407 1 1 1 1 541.4183466756967 -287.4488370119252 0
408 1 1 1 1 -448.6477529617875 341.3033832216496 0
409 1 1 1 1 -51.56474397958129 -366.2773548181934 0
410 1 1 1 1 252.4822299649673 -105.4034628165861 0
411 1 1 1 1 446.3493121763434 95.32424715068578 0
412 1 1 1 1 -395.2371970717595 223.1144210648743 0
413 1 1 1 1 -260.6717500562706 60.23827603885104 0
414 1 1 1 1 -511.2877281041157 155.8855507422361 0
415 1 1 1 1 715.9422523568319 254.1754774865327 0
416 1 1 1 1 -648.0792598376428 100.5453730878677 0
417 1 1 1 1 -264.2172193117567 119.6198852653851 0
418 1 1 1 1 -422.6236671497939 -241.4038431305219 0
419 1 1 1 1 -12.7558784083725 -409.8336509946108 0
420 1 1 1 1 -282.1104573149741 -142.5889829303454 0
421 1 1 1 1 -435.5869757877587 -60.47685181768736 0
422 1 1 1 1 -278.6962469012072 268.3339821036844 0
423 1 1 1 1 108.3235993561834 227.4730464164486 0
424 1 1 1 1 -99.42505165735577 -5.112922163010921 0
425 1 1 1 1 328.1841965167805 -149.5066054471404 0
426 1 1 1 1 -362.2165737504263 -192.2100134195109 0
427 1 1 1 1 494.4706814935782 -169.9045993974597 0
428 1 1 1 1 -250.9473363469375 201.6967698453387 0
429 1 1 1 1 157.1436025984834 133.930115150387 0
430 1 1 1 1 533.2705184483621 367.8903790968143 0
431 1 1 1 1 222.8065293606368 -111.6998973483666 0
432 1 1 1 1 125.5568767413678 -315.4738304656953 0
433 1 1 1 1 1.314864863517755 -120.9357453995242 0
434 1 1 1 1 -715.2135255475209 -270.8057016133106 0
435 1 1 1 1 406.0568336071294 -338.2879590059698 0
436 1 1 1 1 398.419578195023 -175.012869660609 0
437 1 1 1 1 283.4539909135966 267.742571950074 0
438 1 1 1 1 221.5166099449816 415.8631451417726 0
439 1 1 1 1 -433.7903703973615 183.0203261460664 0
440 1 1 1 1 425.3793219345926 -2.830807350056205 0
441 1 1 1 1 -225.0684844725603 -271.9931645413571 0
442 1 1 1 1 -583.7294059807953 382.1645648494682 0
443 1 1 1 1 -112.7624847931816 -311.9612137351523 0
444 1 1 1 1 611.4741879953874 -176.3087762662365 0
445 1 1 1 1 -364.4934401573297 247.4601744560341 0
446 1 1 1 1 65.23750272087671 -299.7356147388135 0
447 1 1 1 1 480.2442546075574 -169.0333544059801 0
448 1 1 1 1 685.8978674912235 338.8425745229345 0
449 1 1 1 1 224.0406926726283 -247.5288477403258 0
450 1 1 1 1 -108.5330572693054 49.21288682693023 0
451 1 1 1 1 538.7733813110294 -381.1468419750412 0
452 1 1 1 1 -706.2226501460299 -130.3403588384331 0
453 1 1 1 1 244.9922317367614 325.5592631046225 0
454 1 1 1 1 -675.7338682109047 -20.04654119270515 0
455 1 1 1 1 272.2222103613844 415.1977072256308 0
456 1 1 1 1 -140.3661830871697 -400.0418401330285 0
457 1 1 1 1 -316.4797826106354 -324.987833438663 0
458 1 1 1 1 250.6860069892641 -412.7126153725992 0
459 1 1 1 1 570.4092329643042 344.4353124889392 0
460 1 1 1 1 -401.6076570898255 -277.2775402769773 0
461 1 1 1 1 540.7781671295975 -140.8810504793519 0
462 1 1 1 1 -540.2133151270405 -298.7048134757658 0
463 1 1 1 1 -325.8198782071909 396.3789005909664 0
464 1 1 1 1 -593.7414147266464 -71.83276719300005 0
465 1 1 1 1 451.9759718826933 207.9081186232171 0
466 1 1 1 1 -488.2099531166586 93.41425577281893 0
467 1 1 1 1 385.9308469035696 -175.7063877277172 0
468 1 1 1 1 558.0379462472727 159.6620477122032 0
469 1 1 1 1 -243.3425852678485 148.5614499885164 0
470 1 1 1 1 400.1438056616362 -31.43515038928319 0
471 1 1 1 1 -687.3698407126996 67.9577536360697 0
472 1 1 1 1 -368.9373786043582 178.8198840109965 0
473 1 1 1 1 137.9868447042283 171.9625926081043 0
474 1 1 1 1 381.6763204172457 -195.7076724870498 0
475 1 1 1 1 291.1354537720797 304.0635901208518 0
476 1 1 1 1 253.1368420052497 250.120159716374 0
477 1 1 1 1 582.7506615254818 -360.0937501219942 0
478 1 1 1 1 -427.5339640093955 -204.3003522969318 0
479 1 1 1 1 413.0918762922258 -190.4681106510416 0
480 1 1 1 1 -68.03377048211848 -426.1634268349192 0
481 1 1 1 1 665.4208063948297 141.0216583516457 0
482 1 1 1 1 45.98793609997483 377.239222964963 0
483 1 1 1 1 -194.7329049736907 421.6056812856408 0
484 1 1 1 1 255.6470315028384 -290.7147854109005 0
485 1 1 1 1 706.7290069335722 225.6259947097431 0
486 1 1 1 1 105.9573041689891 291.2286986645127 0
487 1 1 1 1 -296.6807323560458 -80.13117050235195 0
488 1 1 1 1 -215.4135554770528 -143.9662578373405 0
489 1 1 1 1 335.8951035038572 407.2504119022354 0
490 1 1 1 1 -270.7551438129169 -149.6072621082531 0
491 1 1 1 1 558.356623836881 -368.8769093054623 0
492 1 1 1 1 514.5281667618933 192.9061560473951 0
493 1 1 1 1 -185.8831250013209 385.6146328076877 0
494 1 1 1 1 170.1690600957464 54.3054814027808 0
495 1 1 1 1 599.0797862543566 161.1140769909609 0
496 1 1 1 1 120.050725970612 -116.1764145223356 0
497 1 1 1 1 -400.2575234459533 -173.8059849421444 0
498 1 1 1 1 483.1279378884069 231.5515134093089 0
499 1 1 1 1 171.3482886263145 404.9748747134356 0
500 1 1 1 1 -546.7031242401399 -42.87550271580454 0
501 1 1 1 1 -671.6652634540778 262.185921169622 0
502 1 1 1 1 -586.5292180537888 -52.6378915538686 0
503 1 1 1 1 -237.1051932734212 -248.8086446048869 0
504 1 1 1 1 669.3064110277319 -211.3470630491348 0
505 1 1 1 1 115.120301678868 396.6903907541758 0
506 1 1 1 1 -599.605303105399 360.4695455081284 0
507 1 1 1 1 606.7252757598883 346.8729323791268 0
508 1 1 1 1 274.173232617519 -95.2650010560605 0
509 1 1 1 1 164.4175452897179 426.6373749507027 0
510 1 1 1 1 678.8673349954365 -167.7015930526665 0
511 1 1 1 1 -116.1548490987996 -16.36069246827941 0
512 1 1 1 1 -32.96469987747639 -421.7661051206764 0
513 1 1 1 1 -224.8740435555991 132.270851891863 0
514 1 1 1 1 -392.0451193671537 364.3958510609597 0
515 1 1 1 1 118.8404759097581 73.46847289605859 0
516 1 1 1 1 -544.8487320111145 -345.245733206432 0
517 1 1 1 1 -27.34108880393922 -110.1450862899441 0
518 1 1 1 1 -174.3112871982316 401.9746896992368 0
519 1 1 1 1 -578.4004550488714 340.7542352129813 0
520 1 1 1 1 547.7780624401835 232.5503129313079 0
521 1 1 1 1 -387.8877337630798 -316.9800567724075 0
522 1 1 1 1 -582.3053983688765 -384.2051498370807 0
523 1 1 1 1 -145.5250049525474 -354.3436515417038 0
524 1 1 1 1 -343.2159434807888 -224.6585972422357 0
525 1 1 1 1 -208.9574342161674 -131.612301489688 0
526 1 1 1 1 -58.78065449247822 83.43029646678406 0
527 1 1 1 1 -134.2352376378572 -254.326351560961 0
528 1 1 1 1 -574.2955629866003 -112.7602570569105 0
529 1 1 1 1 421.6938813309239 127.653494809943 0
530 1 1 1 1 628.7358904961347 -162.2696646827812 0
531 1 1 1 1 45.8963006886961 -227.6636008505165 0
532 1 1 1 1 -285.4730169050501 233.2967185122215 0
533 1 1 1 1 -91.07591773985234 -52.40143413352968 0
534 1 1 1 1 199.4390805131327 339.6871903574628 0
535 1 1 1 1 78.36504464431425 -56.41348823273711 0
536 1 1 1 1 327.0803164907695 364.2950418040257 0
537 1 1 1 1 270.7357150167591 293.7033627224687 0
538 1 1 1 1 248.837833394603 -164.2904926324322 0
539 1 1 1 1 -659.1255421209728 -405.0918681168666 0
540 1 1 1 1 114.4439627737596 170.6698852432832 0
541 1 1 1 1 214.3421734123463 272.6883079672346 0
542 1 1 1 1 -345.1331719597783 274.9517539877191 0
543 1 1 1 1 -317.952832022958 -214.1141153292417 0
544 1 1 1 1 301.7285775567511 9.350185420153309 0
545 1 1 1 1 305.3766068387915 146.0723874466613 0
546 1 1 1 1 336.1874359796643 -236.086429211113 0
547 1 1 1 1 -174.0649031288235 131.948133641292 0
548 1 1 1 1 -336.7583863246821 192.2355255652489 0
549 1 1 1 1 -21.78531536771641 252.2387534160057 0
550 1 1 1 1 -205.0541938376731 -259.9613061831415 0
551 1 1 1 1 660.2516489647107 14.23044253532339 0
552 1 1 1 1 278.3891448255191 -114.5072302724947 0
553 1 1 1 1 680.3439987298539 -36.48286205726527 0
554 1 1 1 1 62.02673498541151 -163.8000522250868 0
555 1 1 1 1 -392.3441447498828 308.6153004714889 0
556 1 1 1 1 233.5775838000561 12.49488610765224 0
557 1 1 1 1 588.8571729354017 -135.8516737737037 0
558 1 1 1 1 226.3201198323442 338.4118438318261 0
559 1 1 1 1 -126.5230551905808 -427.2678611839447 0
560 1 1 1 1 303.0816569873832 -408.4138137682963 0
561 1 1 1 1 -165.2582528632538 -355.204519313667 0
562 1 1 1 1 437.7497537690472 176.5256360341787 0
563 1 1 1 1 -267.9835924562391 -330.6461903428687 0
564 1 1 1 1 518.4451176672358 157.9679685668375 0
565 1 1 1 1 -14.29526564459195 -229.4631513712233 0
566 1 1 1 1 -126.771064564265 -344.6408289279574 0
567 1 1 1 1 -350.1270238323647 -96.12998159855687 0
568 1 1 1 1 531.6480433595448 -416.846489603054 0
569 1 1 1 1 -474.914096734494 336.8057446108248 0
570 1 1 1 1 654.1623692783037 -272.1052104156063 0
571 1 1 1 1 294.102045158638 -41.79212867770605 0
572 1 1 1 1 -314.7914455620405 -63.05451829488254 0
573 1 1 1 1 538.1710423423672 -197.0638001931556 0
574 1 1 1 1 497.278444060817 3.696964566316865 0
575 1 1 1 1 -433.4145018940323 -21.31975021063624 0
576 1 1 1 1 675.2239552882836 338.1067992932753 0
577 1 1 1 1 -405.9826368149592 108.7047843445705 0
578 1 1 1 1 120.3868022162552 -89.44936099146264 0
579 1 1 1 1 -420.5977786196341 -273.7595785053528 0
580 1 1 1 1 -681.9249774303485 14.578188021529 0
581 1 1 1 1 -349.4052975222968 -107.0785781941338 0
582 1 1 1 1 147.5814315592087 146.9980854951178 0
583 1 1 1 1 -199.6450245006786 -371.1934968617558 0
584 1 1 1 1 -675.6926547269494 64.20012821409597 0
585 1 1 1 1 552.7444316384172 284.9201177067487 0
586 1 1 1 1 -671.7893752978928 195.6532846471573 0
587 1 1 1 1 -214.0911030835571 66.36510008475506 0
588 1 1 1 1 432.0081384607743 424.1847079117331 0
589 1 1 1 1 -448.2862808812766 -141.9282342103123 0
590 1 1 1 1 564.0738040513247 -134.9084762488665 0