

8601 atoms
22194 bonds
1 atom types
1 bond types
-720 720 xlo xhi
-432 432 ylo yhi
-32 32 zlo zhi

Atoms #bpm/sphere

1 1 1 1 1 -708.2654656795359 275.0843769485941 0
2 1 1 1 1 648.3659717216997 22.73980267454408 0
3 1 1 1 1 -239.2499161881005 431.832413009002 0
4 1 1 1 1 449.7302672934723 -17.36365309781462 0
5 1 1 1 1 193.372468891744 -231.7606961114519 0
6 1 1 1 1 -125.4422927660316 -32.9527189753565 0
7 1 1 1 1 598.8200135719992 -376.7924172568429 0
8 1 1 1 1 170.8023958629963 73.2452575241864 0
9 1 1 1 1 -354.3508293735349 409.9904410847908 0
10 1 1 1 1 -507.8574649172948 360.2136726250287 0
11 1 1 1 1 -651.2553115211027 309.2761650426306 0
12 1 1 1 1 41.04928411681738 -282.2050273116672 0
13 1 1 1 1 395.4722022365488 114.4537266258083 0
14 1 1 1 1 -480.3014040818076 -18.8436107049269 0
15 1 1 1 1 242.591958254633 -285.0920447693867 0
16 1 1 1 1 31.14321762933685 296.9236496082416 0
17 1 1 1 1 312.4579404340391 376.0514346984836 0
18 1 1 1 1 702.1700578224641 201.8042041911398 0
19 1 1 1 1 -371.7771896995627 -253.2622099642024 0
20 1 1 1 1 -518.4739437343379 -359.7654712578814 0
21 1 1 1 1 -115.9129021103011 175.508284559072 0
22 1 1 1 1 342.0035318012826 282.4478586592205 0
23 1 1 1 1 498.8793573595476 398.8028212940841 0
24 1 1 1 1 203.814646201126 274.5280286652424 0
25 1 1 1 1 551.3172597900064 33.33280261450216 0
26 1 1 1 1 594.2281723622489 16.33211998326078 0
27 1 1 1 1 -202.2385345690058 -196.5548688322833 0
28 1 1 1 1 -490.7872248430333 -235.2652880208688 0
29 1 1 1 1 -92.35353503684428 -253.7810110416912 0
30 1 1 1 1 -250.8561975833526 -47.41576286894519 0
31 1 1 1 1 579.5240260747812 240.6938086356682 0
32 1 1 1 1 584.4338538260186 -55.89311119744667 0
33 1 1 1 1 256.0752455389286 59.39819540582505 0
34 1 1 1 1 -294.7320979670917 -248.9859506365439 0
35 1 1 1 1 30.04281877800975 390.1745116949328 0
36 1 1 1 1 682.3060939439802 244.2905619924386 0
37 1 1 1 1 0.4258622598968032 412.7614540951463 0
38 1 1 1 1 235.9101954670141 220.6221231211055 0
39 1 1 1 1 570.0712125382941 79.04920085782931 0
40 1 1 1 1 -651.2232666403309 -412.6510438005007 0
41 1 1 1 1 206.3942866494879 -106.2222172804599 0
42 1 1 1 1 -432.0433642832593 37.1761667420846 0
43 1 1 1 1 574.0348047450755 -123.4355947176777 0
44 1 1 1 1 309.5262063263563 -235.8414420445248 0
45 1 1 1 1 148.971010931807 -430.8815690996761 0
46 1 1 1 1 -228.497319297671 -289.6409500147 0
47 1 1 1 1 -505.2001873866495 309.8107269011155 0
48 1 1 1 1 -369.2235573268455 74.89942055670593 0
49 1 1 1 1 382.5956806048712 -374.6795108268054 0
50 1 1 1 1 591.774789235139 -236.1541840604316 0
51 1 1 1 1 -356.9954626043995 -362.0944911454833 0
52 1 1 1 1 -109.0089813442155 292.9348081266596 0
53 1 1 1 1 -40.17938960206982 67.43717127602309 0
54 1 1 1 1 337.4642221510549 -9.490874462819818 0
55 1 1 1 1 564.0922161536601 234.045403836736 0
56 1 1 1 1 179.0582057960032 207.9528984052582 0
57 1 1 1 1 -639.5788727509935 -425.4180782826016 0
58 1 1 1 1 619.694439832731 112.3328939676782 0
59 1 1 1 1 -551.8566458430206 166.9668414982007 0
60 1 1 1 1 611.5970393889259 273.009042278071 0
61 1 1 1 1 -209.5632028067946 172.9704709198882 0
62 1 1 1 1 -311.8514358922027 231.9929194477489 0
63 1 1 1 1 -659.4752664441503 -85.33781873668909 0
64 1 1 1 1 -454.3232371529334 241.5798978931384 0
65 1 1 1 1 327.7594039224339 310.2858605818216 0
66 1 1 1 1 -320.0064146434382 113.3563409696607 0
67 1 1 1 1 -157.9772550577251 14.14602539069239 0
68 1 1 1 1 -169.7596450161919 -301.7686795355376 0
69 1 1 1 1 270.8876731955226 78.79116203319637 0
70 1 1 1 1 363.7547155567186 -423.9449416677747 0
71 1 1 1 1 304.6069377742867 -355.6970726475086 0
72 1 1 1 1 -580.2195978367743 205.5671151104912 0
73 1 1 1 1 455.7781995894657 49.74562539870038 0
74 1 1 1 1 -13.09826737989749 -24.62084808658494 0
75 1 1 1 1 68.67732387852288 2.388898180951856 0
76 1 1 1 1 -225.7213505395325 -91.77265752887382 0
77 1 1 1 1 287.3124105639372 416.662423772586 0
78 1 1 1 1 41.9810533979396 272.6607965361326 0
79 1 1 1 1 -603.9082892547964 293.6023238012027 0
80 1 1 1 1 -416.4416416994168 240.3213826455594 0
81 1 1 1 1 -287.9471631779754 275.7417534121697 0
82 1 1 1 1 477.6162116067662 50.82710424087316 0
83 1 1 1 1 135.9342102855736 150.3675922735181 0
84 1 1 1 1 0.5389849682861723 -427.8244510073516 0
85 1 1 1 1 673.585974374517 -164.6993698433566 0
86 1 1 1 1 266.5621458041115 401.6903508092287 0
87 1 1 1 1 -249.9238310323544 -37.57338001476597 0
88 1 1 1 1 651.0319248560484 -301.1051274956114 0
89 1 1 1 1 -145.6701722903895 -22.54500953066548 0
90 1 1 1 1 -286.7372695785113 50.08016969767414 0
91 1 1 1 1 366.6580419365782 226.5967743185971 0
92 1 1 1 1 581.7578944020418 219.4503800172947 0
93 1 1 1 1 -584.6153041292101 221.6576991338201 0
94 1 1 1 1 -696.8260538819959 264.1773773210358 0
95 1 1 1 1 502.9945155756016 -133.6541678188686 0
96 1 1 1 1 -429.8603142695163 -119.0277928869338 0
97 1 1 1 1 458.1348696071145 85.8439790289757 0
98 1 1 1 1 -63.49078135600109 -224.1179745882618 0
99 1 1 1 1 -109.7697535949932 -332.296652304495 0
100 1 1 1 1 710.5520483403425 131.6305734289833 0
101 1 1 1 1 -559.286475431236 -262.8710933086785 0
102 1 1 1 1 -215.8870341979114 165.4422999762239 0
103 1 1 1 1 257.0008044941117 260.3909877767035 0
104 1 1 1 1 -36.82572989633241 209.6243721894141 0
105 1 1 1 1 -309.4933557330871 374.7946404478041 0
106 1 1 1 1 206.7812758565467 -271.7226155872719 0
107 1 1 1 1 -384.0225069314478 -262.8670754644451 0
108 1 1 1 1 38.82944104231888 -404.9392231229674 0
109 1 1 1 1 -617.9395318283084 193.467858613934 0
110 1 1 1 1 -156.9131040705988 144.3213259770347 0
111 1 1 1 1 376.8946197479288 166.0581119403388 0
112 1 1 1 1 -149.4136730845213 295.9109941683767 0
113 1 1 1 1 159.4969039288975 44.25435817961306 0
114 1 1 1 1 471.9227960509008 93.39307918724273 0
115 1 1 1 1 -268.1127738961478 -91.03752221414487 0
116 1 1 1 1 -582.6260139841406 -21.75401793550878 0
117 1 1 1 1 663.2572185685031 186.7068228724061 0
118 1 1 1 1 370.9684064789115 -412.9729598645894 0
119 1 1 1 1 437.124029172234 -400.3091148302034 0
120 1 1 1 1 497.8820364153135 237.4718915805888 0
121 1 1 1 1 -90.85653035473979 145.7957615303993 0
122 1 1 1 1 13.51126617016462 -162.97128528919 0
123 1 1 1 1 -99.31593003382739 -401.75501737244 0
124 1 1 1 1 -331.7600971708291 144.9783378656038 0
125 1 1 1 1 435.3166076864832 277.5694708738711 0
126 1 1 1 1 -571.8173122244497 -71.9609443593651 0
127 1 1 1 1 226.0270845487186 -58.35502604724093 0
128 1 1 1 1 -435.1635469892119 -238.6070350783058 0
129 1 1 1 1 196.5449130816121 304.921220225953 0
130 1 1 1 1 526.4113379801167 279.9558337690905 0
131 1 1 1 1 -151.3847090818623 309.1052960481577 0
132 1 1 1 1 68.90975919810603 -408.5321582998449 0
133 1 1 1 1 -138.6226230742692 126.4025161685352 0
134 1 1 1 1 252.1172146907403 237.3620223818723 0
135 1 1 1 1 -72.18643338392417 -228.5226691563515 0
136 1 1 1 1 233.7539328690767 -307.6377489340671 0
137 1 1 1 1 357.7778436468063 -273.4370576335836 0
138 1 1 1 1 -124.5514847199316 -377.9969756580173 0
139 1 1 1 1 -558.6985146132896 247.0511540161195 0
140 1 1 1 1 320.3948763952985 236.532364482698 0
141 1 1 1 1 -289.4396260866951 85.20710987626944 0
142 1 1 1 1 -381.2187975679732 139.0452908743132 0
143 1 1 1 1 94.13132757580036 431.7075083984801 0
144 1 1 1 1 -348.8376379168724 -129.0556966222156 0
145 1 1 1 1 382.2425880037974 338.9963224305072 0
146 1 1 1 1 -458.9295500650833 294.5978890981477 0
147 1 1 1 1 240.6292263743374 181.4922281784271 0
148 1 1 1 1 -541.5716576206216 -240.3375808794785 0
149 1 1 1 1 -367.5806243748086 213.6824123184881 0
150 1 1 1 1 -569.9332033490092 -7.586304790398458 0
151 1 1 1 1 219.4622883608416 245.0287377596634 0
152 1 1 1 1 111.0666159176074 -290.3538093890992 0
153 1 1 1 1 -75.89639159203466 267.9239365782215 0
154 1 1 1 1 -219.7371760514853 74.66051406990346 0
155 1 1 1 1 221.2784930511037 -232.1538066553156 0
156 1 1 1 1 -626.7366858879012 -374.2498179322168 0
157 1 1 1 1 714.9376982507597 -372.9504915344665 0
158 1 1 1 1 -494.4117013207515 360.1566424690099 0
159 1 1 1 1 -317.4382477346189 -50.12723089929239 0
160 1 1 1 1 -284.3788236285823 95.73348381505423 0
161 1 1 1 1 403.275328165892 -102.0751832515504 0
162 1 1 1 1 507.6671330238196 -93.81276715754473 0
163 1 1 1 1 -627.7121555801759 254.029602799103 0
164 1 1 1 1 380.6231998542003 128.9358759416867 0
165 1 1 1 1 -493.2535692601122 35.14556275323531 0
166 1 1 1 1 541.9179131021449 -24.86269074298627 0
167 1 1 1 1 123.7136268341676 20.56500578653737 0
168 1 1 1 1 -384.4142551111739 419.4103181686587 0
169 1 1 1 1 118.5086311449845 -312.5905833486978 0
170 1 1 1 1 -133.8081300893448 -305.9136283574738 0
171 1 1 1 1 334.0052451109343 242.3004867698701 0
172 1 1 1 1 -399.5832101632419 418.6995637093795 0
173 1 1 1 1 282.4381442585718 110.2091677298528 0
174 1 1 1 1 -520.2956998638864 182.4783444906095 0
175 1 1 1 1 341.3239215458855 317.4095627874749 0
176 1 1 1 1 533.7877818218813 72.62989638590079 0
177 1 1 1 1 -374.2706223644188 -349.3203226935536 0
178 1 1 1 1 -142.5703347293643 -411.7865970971753 0
179 1 1 1 1 -264.1160585313134 203.3088562465614 0
180 1 1 1 1 84.12272187237466 -86.13910386341536 0
181 1 1 1 1 465.0092345015501 4.275866297527159 0
182 1 1 1 1 -193.0263688856526 -319.6882138090062 0
183 1 1 1 1 121.341624667568 268.7562040015642 0
184 1 1 1 1 -354.4734093519128 -255.1178438315839 0
185 1 1 1 1 688.6037660392988 284.7326795768958 0
186 1 1 1 1 621.111753638545 -387.3517834727859 0
187 1 1 1 1 -282.3337001989471 -50.89727886256594 0
188 1 1 1 1 -348.2517593707775 -279.7590849303656 0
189 1 1 1 1 18.50640586758323 -403.7856228792746 0
190 1 1 1 1 -608.4579195311442 424.8810526741487 0
191 1 1 1 1 -200.6231072875281 42.90691124956311 0
192 1 1 1 1 605.564388493553 -198.9486674312586 0
193 1 1 1 1 108.3468245415942 -9.455413748468288 0
194 1 1 1 1 292.2371340377576 194.4847531227975 0
195 1 1 1 1 418.0959839903514 -261.210099282137 0
196 1 1 1 1 -76.6376322553657 283.1003256593446 0
197 1 1 1 1 644.7171103294752 116.0651602141596 0
198 1 1 1 1 453.4767041963889 -389.4853512677103 0
199 1 1 1 1 -590.8925823356935 369.1860086440086 0
200 1 1 1 1 383.419627287534 362.4801253129616 0
201 1 1 1 1 587.646202509211 382.9226377554481 0
202 1 1 1 1 -703.0756015911722 -122.0009270354463 0
203 1 1 1 1 -686.2704469701467 316.1310709487898 0
204 1 1 1 1 -442.5872625089916 217.3726371139574 0
205 1 1 1 1 334.0260960337132 -381.4466761311321 0
206 1 1 1 1 -612.6635168690945 -238.3447527086223 0
207 1 1 1 1 701.0834312393004 24.46806911496446 0
208 1 1 1 1 688.8997792709708 140.3633801122131 0
209 1 1 1 1 -31.41955903281871 -74.33670628335483 0
210 1 1 1 1 15.63696256356423 -346.3023066959808 0
211 1 1 1 1 -538.3351205341912 164.9858390063549 0
212 1 1 1 1 334.3939760161379 -235.6338601803472 0
213 1 1 1 1 208.3445588360797 -376.2372826208257 0
214 1 1 1 1 -348.3457824466639 -206.8068437064769 0
215 1 1 1 1 361.1829115140465 -110.8217615377162 0
216 1 1 1 1 120.3764103113502 -274.1799178994083 0
217 1 1 1 1 213.6196830982649 260.9957208943602 0
218 1 1 1 1 -487.7146796229088 104.9750788956584 0
219 1 1 1 1 509.4527744406089 -368.1732705863194 0
220 1 1 1 1 -186.221562187774 354.473045094388 0
221 1 1 1 1 -551.1803292675442 -165.4750096521538 0
222 1 1 1 1 -192.7196362988977 -252.7710645471823 0
223 1 1 1 1 -451.3512698186755 -17.29151462462477 0
224 1 1 1 1 444.8115454346353 343.2576806512856 0
225 1 1 1 1 -106.0604513188804 82.527597832933 0
226 1 1 1 1 220.1111576571088 288.4148152722536 0
227 1 1 1 1 131.2911511231547 380.5773376161044 0
228 1 1 1 1 -294.5477662090771 -33.0106280354546 0
229 1 1 1 1 -332.3633986238216 -6.47451641501857 0
230 1 1 1 1 560.8727994620606 -377.2910494992144 0
231 1 1 1 1 353.3186485284314 -224.9681495377116 0
232 1 1 1 1 -260.291538219299 -414.6203800018867 0
233 1 1 1 1 250.961825415308 -170.6541140992695 0
234 1 1 1 1 317.0372897077696 302.7557481138193 0
235 1 1 1 1 -156.5495966323448 234.1418833052974 0
236 1 1 1 1 248.909026552475 286.3596026453092 0
237 1 1 1 1 653.3326611483026 -179.2961511464419 0
238 1 1 1 1 291.4793150100802 216.7183226433433 0
239 1 1 1 1 -86.08739966118685 186.6500431947679 0
240 1 1 1 1 -116.7006362602833 255.3410543209835 0
241 1 1 1 1 -433.8157997820474 341.6034762147169 0
242 1 1 1 1 -213.7182729566292 -264.1009414612002 0
243 1 1 1 1 -581.7511457780049 -60.74663220969364 0
244 1 1 1 1 651.0858917091844 171.195396383655 0
245 1 1 1 1 -505.6409999670344 -155.5621194184463 0
246 1 1 1 1 296.0504816399269 228.3017529927092 0
247 1 1 1 1 693.391365917993 -44.86361858216549 0
248 1 1 1 1 -265.3489688051894 395.4692894762769 0
249 1 1 1 1 104.5562604569882 378.5693258147779 0
250 1 1 1 1 -468.1545632869761 -273.3338565274648 0
251 1 1 1 1 -252.7126743077643 -13.07518191780406 0
252 1 1 1 1 -172.7494051847378 -154.7568864241372 0
253 1 1 1 1 682.3571854819793 208.6220772588474 0
254 1 1 1 1 -716.0394125791194 -52.27396487244602 0
255 1 1 1 1 -714.9778954118088 363.7969659067985 0
256 1 1 1 1 -533.5608284533596 -49.95787193543555 0
257 1 1 1 1 -83.75325741538268 -320.4377528107796 0
258 1 1 1 1 -184.9500853857975 17.19851452386394 0
259 1 1 1 1 -408.176659142565 140.5950550603384 0
260 1 1 1 1 234.8401983016935 -406.8098415397146 0
261 1 1 1 1 216.7149081771219 322.3939379096366 0
262 1 1 1 1 -50.08307228197009 -299.4552198260967 0
263 1 1 1 1 234.3649067516582 140.9035158242917 0
264 1 1 1 1 -137.5811017772588 281.3834239281908 0
265 1 1 1 1 708.0830203779733 424.3162180677681 0
266 1 1 1 1 -53.7270592302591 250.082464172611 0
267 1 1 1 1 -426.6519868466629 -281.1929302971319 0
268 1 1 1 1 -499.1079957837228 422.4968847842591 0
269 1 1 1 1 87.46017052938225 -241.9205861907426 0
270 1 1 1 1 -426.8852792498822 -139.5828729934228 0
271 1 1 1 1 376.3438726760203 -384.8956308032988 0
272 1 1 1 1 -679.8703985182654 336.2911423303683 0
273 1 1 1 1 -326.7346906461169 133.4972607823339 0
274 1 1 1 1 528.1517530320432 172.5159226853315 0
275 1 1 1 1 393.5015725698827 -130.6192183313771 0
276 1 1 1 1 389.9608913344434 -140.1030252404291 0
277 1 1 1 1 -540.3611153028329 20.46951204731857 0
278 1 1 1 1 -621.9988554391238 -130.8817436506016 0
279 1 1 1 1 16.92579777834112 112.3416950039364 0
280 1 1 1 1 118.1395588158935 219.6610852155512 0
281 1 1 1 1 -214.5934382727148 192.9830894293403 0
282 1 1 1 1 -253.1028761525973 318.7281277706369 0
283 1 1 1 1 675.5380726604253 -236.3395845208856 0
284 1 1 1 1 -2.311398771005315 -190.2273183165938 0
285 1 1 1 1 521.0264961875582 5.583408397657195 0
286 1 1 1 1 410.0786618690509 222.4602312459056 0
287 1 1 1 1 -16.27486397823043 -301.6501535113993 0
288 1 1 1 1 519.3074346417895 -269.026215205678 0
289 1 1 1 1 -300.1160549544771 -15.97369770570066 0
290 1 1 1 1 625.3945171891101 320.0890807781204 0
291 1 1 1 1 -228.8415221240114 -5.49714275339818 0
292 1 1 1 1 679.3458447623236 67.34300422404101 0
293 1 1 1 1 -476.8043482416784 23.36875596324808 0
294 1 1 1 1 -553.9011976196532 176.4577954153037 0
295 1 1 1 1 598.8118089717352 -94.35011070915516 0
296 1 1 1 1 -459.547946801582 -241.9559902329665 0
297 1 1 1 1 282.9109235052287 281.0892272905367 0
298 1 1 1 1 -637.1645346892667 279.8663138193834 0
299 1 1 1 1 -629.6590115327264 -57.16756389197133 0
300 1 1 1 1 615.9346008450227 -115.9606380607331 0
301 1 1 1 1 583.8083160634608 -40.79324731082102 0
302 1 1 1 1 622.5816034774086 92.03756111293717 0
303 1 1 1 1 -71.57425197850569 4.148713701894565 0
304 1 1 1 1 -74.11215399498224 -173.9758572538892 0
305 1 1 1 1 -13.40575161593711 -195.7688168485264 0
306 1 1 1 1 547.9019163329504 -83.27061144908208 0
307 1 1 1 1 -556.396950180065 374.1706183188635 0
308 1 1 1 1 658.514242794522 -214.1918887891045 0
309 1 1 1 1 419.0152637095655 -92.31253223420561 0
310 1 1 1 1 -690.0767508723837 -119.5917256424316 0
311 1 1 1 1 -530.9289641030582 -428.333888444135 0
312 1 1 1 1 -508.6331195470796 -287.455582699138 0
313 1 1 1 1 -360.856166618598 61.02255710592095 0
314 1 1 1 1 -607.0137801319341 -19.3808116750742 0
315 1 1 1 1 -221.8774733315875 239.7242620747063 0
316 1 1 1 1 146.6622830293985 -337.7421077215896 0
317 1 1 1 1 -158.8019941620977 -144.4693809495911 0
318 1 1 1 1 479.5790251926314 280.7454940350958 0
319 1 1 1 1 -558.4495608507408 -202.6927018276385 0
320 1 1 1 1 -618.4556637873732 -146.6941931937981 0
321 1 1 1 1 119.2648635688456 -2.725207116631395 0
322 1 1 1 1 -4.030805612145969 190.9123129553979 0
323 1 1 1 1 421.1808218663084 74.70020019290553 0
324 1 1 1 1 542.6662559898073 -391.4794466302244 0
325 1 1 1 1 314.2768835526103 52.77943956355944 0
326 1 1 1 1 629.6541774102898 -113.9654341166988 0
327 1 1 1 1 -451.6246934641596 -84.78858441018485 0
328 1 1 1 1 -60.3387394978397 161.9466104591305 0
329 1 1 1 1 -289.7544436946492 -60.28825754869109 0
330 1 1 1 1 550.871529270094 -256.6284036395714 0
331 1 1 1 1 420.5188245466918 -399.5050146953589 0
332 1 1 1 1 131.8742514753698 -58.1812026554025 0
333 1 1 1 1 230.1345714515593 72.33534398378959 0
334 1 1 1 1 -62.54400109068627 -181.6891513566791 0
335 1 1 1 1 -274.8251683357472 280.4741599064139 0
336 1 1 1 1 -235.1123278027335 422.1536334302991 0
337 1 1 1 1 289.4812856506655 362.7009549867622 0
338 1 1 1 1 97.35176354045973 -78.59504088852225 0
339 1 1 1 1 -181.0663070799646 -223.7178446834773 0
340 1 1 1 1 -661.5761936619899 405.7878642427978 0
341 1 1 1 1 -112.4895905344361 -175.8499383999986 0
342 1 1 1 1 85.05989551854702 -259.8437162455421 0
343 1 1 1 1 298.7610065079554 -129.7188569830347 0
344 1 1 1 1 374.7009135260494 408.5069051495832 0
345 1 1 1 1 640.8155496197921 -184.9192730191177 0
346 1 1 1 1 -159.8749061267887 -52.01042035541246 0
347 1 1 1 1 -466.5584383435383 53.66751171853093 0
348 1 1 1 1 -144.4473865188746 -307.1131212634969 0
349 1 1 1 1 -369.7515262882127 361.5858570928526 0
350 1 1 1 1 -71.41047665699921 -213.8861491131346 0
351 1 1 1 1 -156.8635028605477 353.1164980784946 0
352 1 1 1 1 363.5015224707811 87.60263771303937 0
353 1 1 1 1 -325.366090474402 252.9397665719138 0
354 1 1 1 1 -142.5167288989836 217.9515215782458 0
355 1 1 1 1 -678.623942750858 170.6381821564306 0
356 1 1 1 1 332.9717414687134 399.925568622529 0
357 1 1 1 1 432.7942970920435 -91.63572401306641 0
358 1 1 1 1 310.5837046465445 -302.4607482689471 0
359 1 1 1 1 -699.5388379999982 -303.6685153010213 0
360 1 1 1 1 369.8481618699052 -141.5786770030672 0
361 1 1 1 1 -442.2181054767899 416.7526505300006 0
362 1 1 1 1 -290.4508038090401 212.0412998832263 0
363 1 1 1 1 -361.7325085113215 189.3346678795024 0
364 1 1 1 1 621.2575644501962 -188.7994413956419 0
365 1 1 1 1 -687.7297172850781 -17.37181436118334 0
366 1 1 1 1 -180.4741744603826 129.750162409806 0
367 1 1 1 1 173.8509982725215 -186.0470821047426 0
368 1 1 1 1 498.3638551840995 -326.4422162331686 0
369 1 1 1 1 -426.6034005578171 421.7111694107243 0
370 1 1 1 1 -235.805707516171 272.2549323126349 0
371 1 1 1 1 -165.9695226754794 169.0878659948445 0
372 1 1 1 1 548.3827943096899 -122.8391011625031 0
373 1 1 1 1 671.2185176356334 -410.7608609224338 0
374 1 1 1 1 -489.2028938359829 228.3451369726199 0
375 1 1 1 1 217.5455447157056 69.14206039490091 0
376 1 1 1 1 344.44173370873 384.356975323081 0
377 1 1 1 1 328.2636077606494 -165.5197085174224 0
378 1 1 1 1 -296.4158498427296 145.0361772918326 0
379 1 1 1 1 -515.0467525845563 308.5024734778384 0
380 1 1 1 1 -550.8592424499104 -230.3823779738157 0
381 1 1 1 1 240.7002269318601 -320.5469494689073 0
382 1 1 1 1 226.9754678799179 -160.5798616494284 0
383 1 1 1 1 -207.6883424780031 49.86612971361461 0
384 1 1 1 1 524.0488940234825 -183.2358728108925 0
385 1 1 1 1 8.196955256257411 250.8706786478278 0
386 1 1 1 1 -169.290331479353 109.8077765904915 0
387 1 1 1 1 663.7888365732288 -398.7539233259031 0
388 1 1 1 1 -373.3506928109459 416.2353924552683 0
389 1 1 1 1 -572.6090803799177 68.3862354407708 0
390 1 1 1 1 -329.7954746303014 -155.9217613019856 0
391 1 1 1 1 646.2242033733128 -85.62477015775369 0
392 1 1 1 1 -291.8597852459931 258.1527547769501 0
393 1 1 1 1 -307.9136273091044 167.408325698884 0
394 1 1 1 1 -511.0544361763982 -197.9885945549309 0
395 1 1 1 1 687.1915881091036 -105.3712154079878 0
396 1 1 1 1 630.4095061301598 121.1978248423069 0
397 1 1 1 1 -359.4513663741309 133.648906215624 0
398 1 1 1 1 5.030348878859741 87.90675297492567 0
399 1 1 1 1 39.47681504399134 -382.2053367036927 0
400 1 1 1 1 256.1562793996327 145.4072469301493 0
401 1 1 1 1 -27.22454166926491 -342.8985235129325 0
402 1 1 1 1 -301.5148306333858 348.1784702392629 0
403 1 1 1 1 373.2467919450662 194.0346830732078 0
404 1 1 1 1 274.3094186695345 -228.0674605097651 0
405 1 1 1 1 -637.988828992753 361.8762104587212 0
406 1 1 1 1 -614.2082512616978 213.3243216917051 0
407 1 1 1 1 -390.5958353910671 -51.72908630058453 0
408 1 1 1 1 547.4584807218937 355.9512940705309 0
409 1 1 1 1 -145.0488727189115 -228.6994155690348 0
410 1 1 1 1 137.430387220633 279.5774703903969 0
411 1 1 1 1 -111.6190964508917 8.797945846669393 0
412 1 1 1 1 -536.3596541271947 -107.8216513162033 0
413 1 1 1 1 222.5482957325111 205.3279020758655 0
414 1 1 1 1 -587.9926082535884 -105.9536357721885 0
415 1 1 1 1 34.78485554234487 -317.4789026746259 0
416 1 1 1 1 71.78779699278289 -112.5764079573577 0
417 1 1 1 1 -593.5564543220023 -397.8253333809831 0
418 1 1 1 1 -481.2028333763233 381.6132366652363 0
419 1 1 1 1 -600.8102179444222 270.8771346056557 0
420 1 1 1 1 -52.80178847368825 -360.4292664806149 0
421 1 1 1 1 -550.2540868048455 -303.1066439891164 0
422 1 1 1 1 -640.9170638306426 87.04976556694805 0
423 1 1 1 1 9.82813101443719 -115.6095170901858 0
424 1 1 1 1 -232.8487112938323 145.7791441030655 0
425 1 1 1 1 373.8666286044552 -122.5360712165079 0
426 1 1 1 1 531.292966803969 183.8451578702731 0
427 1 1 1 1 222.1475744279182 -148.7269254795934 0
428 1 1 1 1 -120.6846200099201 -115.8358265689713 0
429 1 1 1 1 -106.0393467386429 -302.649558649282 0
430 1 1 1 1 -312.8676858342318 -74.67323097560359 0
431 1 1 1 1 322.4771193469037 348.5875971547553 0
432 1 1 1 1 122.5394841442792 321.234236046026 0
433 1 1 1 1 213.4882355277599 390.261134668717 0
434 1 1 1 1 533.4141748721136 -66.15804796574759 0
435 1 1 1 1 -706.4998415540536 -382.2796583438146 0
436 1 1 1 1 331.9271090149239 185.8100949242398 0
437 1 1 1 1 4.984438195038251 -333.3166218253209 0
438 1 1 1 1 524.7097604649157 127.3536134548752 0
439 1 1 1 1 284.4845674662752 39.15826253717717 0
440 1 1 1 1 -633.1516177021889 -179.3129928632321 0
441 1 1 1 1 -374.1185600205051 430.9813672730658 0
442 1 1 1 1 -125.0692901832816 -293.000543350572 0
443 1 1 1 1 622.0701208140358 -319.6051374231772 0
444 1 1 1 1 -578.5592179424198 169.8651452179998 0
445 1 1 1 1 160.3968330705608 -375.8930706605715 0
446 1 1 1 1 -104.4642588138415 -354.4012346552278 0
447 1 1 1 1 689.1663152974156 312.2116279180963 0
448 1 1 1 1 131.8166475022312 -160.9233535376438 0
449 1 1 1 1 603.5147990518724 180.2866468815868 0
450 1 1 1 1 -331.7860441783242 -110.9386165575419 0
451 1 1 1 1 399.6677358782545 -229.1155361570781 0
452 1 1 1 1 199.8380905896217 -168.6327739960278 0
453 1 1 1 1 531.429481670757 -263.3110635734403 0
454 1 1 1 1 178.7344469756362 155.0634088055795 0
455 1 1 1 1 542.984093704302 121.5315961916615 0
456 1 1 1 1 318.6662890127793 -380.0632752007547 0
457 1 1 1 1 350.439231788248 -31.23264964755629 0
458 1 1 1 1 -312.0355569806654 -158.1409607559338 0
459 1 1 1 1 -429.6323430945463 165.5975711926244 0
460 1 1 1 1 -142.5125584669124 -257.8596581511841 0
461 1 1 1 1 558.6235822109018 -424.2418659649778 0
462 1 1 1 1 668.7735025512914 419.8920585635175 0
463 1 1 1 1 471.1736301254809 -103.1288363607307 0
464 1 1 1 1 -139.844750775737 316.6198525154002 0
465 1 1 1 1 -598.070592552929 -336.5327404955931 0
466 1 1 1 1 -144.1939971378318 184.2211266836554 0
467 1 1 1 1 31.39504831701083 330.1071472562094 0
468 1 1 1 1 287.2504958994325 -75.25708922732855 0
469 1 1 1 1 400.648541997653 140.3020524995045 0
470 1 1 1 1 484.988300859839 34.12348664173118 0
471 1 1 1 1 -204.6357378131489 -62.01559465895406 0
472 1 1 1 1 102.5042169911918 -166.5363775010015 0
473 1 1 1 1 172.6021438534771 226.5158212953962 0
474 1 1 1 1 -141.2668365000418 110.1112885473042 0
475 1 1 1 1 -170.7890558678606 430.2060587420738 0
476 1 1 1 1 -376.2394573616725 -430.7669852293263 0
477 1 1 1 1 118.9989224890329 -337.3880186267168 0
478 1 1 1 1 107.1737798557015 293.39144248149 0
479 1 1 1 1 -230.9341181657783 232.2175512085088 0
480 1 1 1 1 -2.747650879374533 281.6405952657133 0
481 1 1 1 1 577.1557874361022 -89.40672159647687 0
482 1 1 1 1 122.8016532611107 177.8738121897469 0
483 1 1 1 1 438.3764572284608 166.7976103236656 0
484 1 1 1 1 -531.7539798334558 420.8584247725332 0
485 1 1 1 1 -496.9805731564187 45.72689026415662 0
486 1 1 1 1 360.531540962452 -181.9943066583098 0
487 1 1 1 1 576.9759327665033 -68.08746508739404 0
488 1 1 1 1 434.4381556809713 325.7010402336374 0
489 1 1 1 1 47.47657965444114 186.2254421784213 0
490 1 1 1 1 -209.7323029328835 -412.2693454751433 0
491 1 1 1 1 -710.7796616581298 -409.3773757838129 0
492 1 1 1 1 265.796390338767 237.3233568880073 0
493 1 1 1 1 -17.95741735898434 7.534549237361262 0
494 1 1 1 1 -107.9223431808225 248.8494909856607 0
495 1 1 1 1 -16.28337255878955 -206.3621620538323 0
496 1 1 1 1 -523.2820602989061 379.3668143222859 0
497 1 1 1 1 498.5046646092055 -40.78739687491236 0
498 1 1 1 1 -299.7811978555627 96.25091604267709 0
499 1 1 1 1 288.3721286342391 387.4093508153626 0
500 1 1 1 1 -650.4987899621837 -114.2248799090756 0
501 1 1 1 1 195.7889942431947 -305.8652321016923 0
502 1 1 1 1 -422.1716274336067 287.8530243012543 0
503 1 1 1 1 -542.3640588558773 -194.1279993926154 0
504 1 1 1 1 558.6700968444141 387.8719189164641 0
505 1 1 1 1 452.2223547453434 31.15575836173809 0
506 1 1 1 1 276.2855495021618 -20.54953145093589 0
507 1 1 1 1 -232.7003831342105 -203.466937551021 0
508 1 1 1 1 529.5613891625287 -153.5027018294269 0
509 1 1 1 1 -131.4541395018964 255.6398373319204 0
510 1 1 1 1 296.6981414984477 -11.76383326456784 0
511 1 1 1 1 -66.30386699895428 -73.91952355174271 0
512 1 1 1 1 -337.4534553348432 -255.1023575425292 0
513 1 1 1 1 561.3067357229004 -314.04036968552 0
514 1 1 1 1 -189.3374675096045 -358.6839446366458 0
515 1 1 1 1 -441.9387708486792 -52.96720687798495 0
516 1 1 1 1 206.4897079078031 136.99736297467 0
517 1 1 1 1 -601.6810223570722 -220.7904156438142 0
518 1 1 1 1 -216.6260846258656 -328.6988697814736 0
519 1 1 1 1 -138.8199693338049 -269.7287369845727 0
520 1 1 1 1 218.9681221156393 -97.33176019341499 0
521 1 1 1 1 108.6519973523427 -414.820877523442 0
522 1 1 1 1 -617.247899304095 -324.5798731211951 0
523 1 1 1 1 500.8109329711031 191.2536041559599 0
524 1 1 1 1 593.5609850700396 -112.3927487981994 0
525 1 1 1 1 683.1819548749613 -295.9125971178613 0
526 1 1 1 1 686.1737512156465 -342.2137503144492 0
527 1 1 1 1 -478.782587360449 222.449786086798 0
528 1 1 1 1 -452.4050914556956 -313.5436207502763 0
529 1 1 1 1 -575.105484195536 265.7979016064674 0
530 1 1 1 1 373.2631016156629 382.6536044934926 0
531 1 1 1 1 -567.1588011463003 27.06604830208221 0
532 1 1 1 1 65.42663071426796 -221.6537807998418 0
533 1 1 1 1 -695.1158802788322 189.3609120527274 0
534 1 1 1 1 -616.6086064223885 389.3061811028834 0
535 1 1 1 1 -465.7841523537552 244.8205164628332 0
536 1 1 1 1 -387.8438362669876 -101.5565961961231 0
537 1 1 1 1 615.488292946045 -59.59231345710469 0
538 1 1 1 1 -373.3396134667796 -399.7929143479398 0
539 1 1 1 1 -127.830396097531 399.146232918324 0
540 1 1 1 1 -543.8786832929604 402.9503961351951 0
541 1 1 1 1 -476.3354628517978 248.2927758815888 0
542 1 1 1 1 268.6538243072135 -268.6328674164537 0
543 1 1 1 1 -36.47794617691193 20.49459678177982 0
544 1 1 1 1 251.0356629020329 -44.85024821268723 0
545 1 1 1 1 620.1796693932645 198.7429691741754 0
546 1 1 1 1 539.4285545779735 241.9538626274458 0
547 1 1 1 1 -325.9224304207363 -320.6210199771809 0
548 1 1 1 1 -501.3424649755339 105.1971902852997 0
549 1 1 1 1 -283.1966018355944 -30.78042106282447 0
550 1 1 1 1 -102.2486115786619 343.0790498988001 0
551 1 1 1 1 344.6717006298929 17.35609324605099 0
552 1 1 1 1 -586.1235208696496 184.8806159901941 0
553 1 1 1 1 -210.9397325637692 -170.1542281552447 0
554 1 1 1 1 -398.7988437466129 67.32379092604526 0
555 1 1 1 1 -544.1564213243313 -67.71254648544391 0
556 1 1 1 1 430.421341464315 378.49774286851 0
557 1 1 1 1 343.3961988741094 334.7424058075004 0
558 1 1 1 1 -561.5828913137352 424.2564490185794 0
559 1 1 1 1 -432.0881032581893 -183.9612627057165 0
560 1 1 1 1 480.3449528254791 -61.01729885169624 0
561 1 1 1 1 -485.1731917540773 -133.068517322542 0
562 1 1 1 1 217.4414873046804 227.6539623117594 0
563 1 1 1 1 -650.3405865467787 377.1960537649469 0
564 1 1 1 1 155.2841080354122 248.8363521912992 0
565 1 1 1 1 -710.6013786784749 100.037519426519 0
566 1 1 1 1 544.1808707067505 -360.0434460662883 0
567 1 1 1 1 -559.533940054248 50.05813588382273 0
568 1 1 1 1 -29.54031592425417 -7.758796190341457 0
569 1 1 1 1 -141.829316901264 -324.7279525864036 0
570 1 1 1 1 -253.74783077537 -183.1978157428365 0
571 1 1 1 1 694.3426198439047 -237.3710620055176 0
572 1 1 1 1 -651.4403027611456 276.0154522362678 0
573 1 1 1 1 633.3353599319833 -28.68164846285464 0
574 1 1 1 1 507.5067249308788 77.95487615849731 0
575 1 1 1 1 533.0471123553316 392.707536096092 0
576 1 1 1 1 35.62283463530901 49.00323449518356 0
577 1 1 1 1 -715.1106527656621 47.23285195950507 0
578 1 1 1 1 494.4617043336966 -352.7730831753286 0
579 1 1 1 1 201.4523429687743 325.0847579882537 0
580 1 1 1 1 395.4071892944585 -197.7085961351044 0
581 1 1 1 1 456.0343262063889 -221.8935045223114 0
582 1 1 1 1 -393.401458859616 -214.9299683148332 0
583 1 1 1 1 -57.71227954682809 -52.11395174340061 0
584 1 1 1 1 637.1067267206938 57.95143039060514 0
585 1 1 1 1 -133.0063901028995 229.9892533616733 0
586 1 1 1 1 -371.4792141993815 -123.6285788102589 0
587 1 1 1 1 224.9653259021093 -363.5373135604312 0
588 1 1 1 1 -86.38354061233974 -87.84961831001914 0
589 1 1 1 1 41.68895717580313 87.40836144204252 0
590 1 1 1 1 -663.5080222779341 -402.6658873372464 0