

725 atoms
1750 bonds
1 atom types
1 bond types
-160 160 xlo xhi
-160 160 ylo yhi
-32 32 zlo zhi

Atoms #bpm/sphere

1 1 1 1 1 126.9185444784291 79.37900122935258 0
2 1 1 1 1 152.4153145721027 62.26580321550307 0
3 1 1 1 1 -36.33605494750239 132.055480300618 0
4 1 1 1 1 53.67080701917695 7.314580875631066 0
5 1 1 1 1 91.17576698256624 139.2671379776317 0
6 1 1 1 1 -104.9582081672115 -104.3844415838385 0
7 1 1 1 1 -130.5529452932449 -2.106773128497991 0
8 1 1 1 1 37.56692318678245 84.08290112154339 0
9 1 1 1 1 -82.8963956769054 -47.18831100327392 0
10 1 1 1 1 -128.0641098478404 91.35425888609856 0
11 1 1 1 1 -103.0249615673289 108.6910629941548 0
12 1 1 1 1 130.0746659838416 -152.1268466089213 0
13 1 1 1 1 -146.5128398595589 90.05938293084506 0
14 1 1 1 1 118.855320800687 -72.02596847873426 0
15 1 1 1 1 -3.964702338943937 -125.189847712421 0
16 1 1 1 1 -9.247937979430418 -142.2176267698421 0
17 1 1 1 1 9.400907579767932 6.036059499061111 0
18 1 1 1 1 18.72733529473754 -117.904469803088 0
19 1 1 1 1 102.5181969681497 -96.17045592404378 0
20 1 1 1 1 -76.96461646752311 83.13513449113947 0
21 1 1 1 1 117.8003446676242 -13.3068628608109 0
22 1 1 1 1 -124.1653202621109 -82.38075799306185 0
23 1 1 1 1 73.06925660168571 5.593771606417249 0
24 1 1 1 1 18.75370614988617 148.2428293305354 0
25 1 1 1 1 -67.9270507318175 -53.09750778008575 0
26 1 1 1 1 -16.20623585982824 6.283857086657207 0
27 1 1 1 1 -56.11451248569952 60.61975960129385 0
28 1 1 1 1 46.4873079470425 -1.326594072493435 0
29 1 1 1 1 113.9102052432768 134.7644269942099 0
30 1 1 1 1 48.18200383686235 -14.55918926376 0
31 1 1 1 1 91.45261518291625 94.23685173303355 0
32 1 1 1 1 44.62243408423819 103.9578865391224 0
33 1 1 1 1 78.79954038596932 -16.4136799066799 0
34 1 1 1 1 158.5591003370345 54.04148912559288 0
35 1 1 1 1 -68.23260728225475 126.8103091839428 0
36 1 1 1 1 -128.0986070134806 112.1578032426179 0
37 1 1 1 1 41.65735073831081 -108.5123611213149 0
38 1 1 1 1 -22.81280407313974 -80.20658899757109 0
39 1 1 1 1 110.9608308973998 19.08672137787221 0
40 1 1 1 1 58.67992596094859 -72.38182488984509 0
41 1 1 1 1 -52.1778261098905 99.25254224640662 0
42 1 1 1 1 153.3517585723018 43.53275301659923 0
43 1 1 1 1 -65.77396472145331 -30.85260897618008 0
44 1 1 1 1 -59.38307038863326 22.89984804101235 0
45 1 1 1 1 33.7103367642049 111.8506758170951 0
46 1 1 1 1 -50.55995126981631 133.7994214416292 0
47 1 1 1 1 116.5873087484582 -85.13875072131938 0
48 1 1 1 1 100.3915058951955 84.33940389531892 0
49 1 1 1 1 124.8684272743657 -118.8357080503305 0
50 1 1 1 1 75.35032471035021 -158.51987334731 0
51 1 1 1 1 -31.51064669085747 28.11428858982012 0
52 1 1 1 1 82.95623147436655 -152.1049442162764 0
53 1 1 1 1 156.1256421147831 -97.69165607003345 0
54 1 1 1 1 78.53079691270818 -30.60467902451833 0
55 1 1 1 1 -121.3086547702569 -32.89867592193367 0
56 1 1 1 1 22.36128588426257 97.96923930186051 0
57 1 1 1 1 -121.8676942326946 -123.3453539876677 0
58 1 1 1 1 -84.88779736445468 4.114413608040252 0
59 1 1 1 1 118.9539323492916 -151.7112639532686 0
60 1 1 1 1 136.2873099329452 -22.66789296187096 0
61 1 1 1 1 -62.79448870167838 144.5928157806447 0
62 1 1 1 1 -60.17860619143536 -113.7531457750032 0
63 1 1 1 1 -84.74864134219196 108.5573743623745 0
64 1 1 1 1 7.362574777828712 -16.22741194703872 0
65 1 1 1 1 64.06887494274673 -146.262532275891 0
66 1 1 1 1 88.40097561011501 154.6345785629219 0
67 1 1 1 1 -91.05646332755543 81.98867503986943 0
68 1 1 1 1 -153.9881920671602 68.47046743019041 0
69 1 1 1 1 20.98772522459481 83.28463121577664 0
70 1 1 1 1 -91.73644283787038 -151.0560012002361 0
71 1 1 1 1 -145.2432740280534 75.39940899989381 0
72 1 1 1 1 -1.343323123222888 83.01201996598087 0
73 1 1 1 1 -2.236296663193997 -38.9418835646385 0
74 1 1 1 1 86.05140241807203 -106.9286857804914 0
75 1 1 1 1 152.8175918428162 101.8716377098098 0
76 1 1 1 1 129.7148421313063 69.19011658258989 0
77 1 1 1 1 67.7149946778928 142.0830694914952 0
78 1 1 1 1 63.25304560300771 44.54968051651093 0
79 1 1 1 1 139.6218733963452 -114.7723322649622 0
80 1 1 1 1 156.4897474698226 142.2889181354469 0
81 1 1 1 1 -138.5276111501246 -27.44846208427421 0
82 1 1 1 1 148.5290317652107 -143.1529974344358 0
83 1 1 1 1 10.48969447344865 -95.53507326037234 0
84 1 1 1 1 125.5187570322602 -24.62276474930115 0
85 1 1 1 1 -63.92875013664785 71.86962468614368 0
86 1 1 1 1 -148.994370739745 -68.98009207788976 0
87 1 1 1 1 55.35178889627167 107.0708773360767 0
88 1 1 1 1 -128.7896618992648 59.5151180542835 0
89 1 1 1 1 -157.5307735079491 125.0380665790835 0
90 1 1 1 1 113.5635750912961 -33.12705388338173 0
91 1 1 1 1 -126.3087758563906 9.093706273692163 0
92 1 1 1 1 150.3638805551724 113.7467665706585 0
93 1 1 1 1 2.652666718870336 140.8417713567359 0
94 1 1 1 1 -23.14215629101034 112.709224800501 0
95 1 1 1 1 10.95078353944865 -29.67847034791396 0
96 1 1 1 1 -41.78138377549672 9.982006577207471 0
97 1 1 1 1 87.26027211580856 -62.6205280106127 0
98 1 1 1 1 -57.99042840538576 126.5717808252028 0
99 1 1 1 1 -107.2063190526021 -144.2481546066084 0
100 1 1 1 1 41.69553595070408 59.40327672703023 0
101 1 1 1 1 -11.95683420263205 -14.94571838553009 0
102 1 1 1 1 137.4429133364034 -40.14318150781318 0
103 1 1 1 1 -88.86673097504402 -99.61142260301479 0
104 1 1 1 1 140.5873662405118 132.1999031871177 0
105 1 1 1 1 4.850715158602981 114.2710333869031 0
106 1 1 1 1 76.52988045797954 17.51723155690058 0
107 1 1 1 1 -50.89230011927505 33.23347968450884 0
108 1 1 1 1 136.5965873519152 -73.81504927555405 0
109 1 1 1 1 -41.83400527601634 -134.1161895604345 0
110 1 1 1 1 58.7642522293836 27.33932041680592 0
111 1 1 1 1 -2.508928398482766 52.72533657606334 0
112 1 1 1 1 -26.01563232857893 94.90195826727648 0
113 1 1 1 1 103.685907310229 -114.3662769143158 0
114 1 1 1 1 -138.7983518244033 130.3846473294601 0
115 1 1 1 1 -6.24190668246672 -102.2263314592416 0
116 1 1 1 1 92.09119908233518 -158.5361605284847 0
117 1 1 1 1 69.18310682222972 -114.1436212817721 0
118 1 1 1 1 156.2203639092871 -11.72591383141747 0
119 1 1 1 1 -118.8412862084188 -66.21425759903727 0
120 1 1 1 1 -21.45733206492889 140.2568192914165 0
121 1 1 1 1 18.22273519878649 26.24852603100493 0
122 1 1 1 1 26.37386905776236 75.15155872320003 0
123 1 1 1 1 -109.8082210947697 -21.40980862765605 0
124 1 1 1 1 -72.92420685322892 36.99238146346374 0
125 1 1 1 1 53.31695879100809 135.4218527772156 0
126 1 1 1 1 83.1921631407829 110.7546875334092 0
127 1 1 1 1 36.33181604834289 140.968098976037 0
128 1 1 1 1 -54.17322567064161 -150.4162301918565 0
129 1 1 1 1 134.4762594705487 6.968513631630316 0
130 1 1 1 1 -15.62009616188917 106.5536880236477 0
131 1 1 1 1 149.8820383061337 -74.9962364291536 0
132 1 1 1 1 62.658240108028 127.2750990400938 0
133 1 1 1 1 -31.77884200609228 -43.59525948712997 0
134 1 1 1 1 145.6808465690124 35.92719068857957 0
135 1 1 1 1 -18.33882451283057 -150.1417634715667 0
136 1 1 1 1 -59.12798462066019 -19.40704309098112 0
137 1 1 1 1 -147.9088324016151 7.990059206495602 0
138 1 1 1 1 -40.11019672058811 -97.08287277622776 0
139 1 1 1 1 -113.4640017058999 153.9074383145412 0
140 1 1 1 1 117.881787122075 -129.2312015731897 0
141 1 1 1 1 -28.44939342625116 -133.6443635162882 0
142 1 1 1 1 151.087925534521 150.2845021333914 0
143 1 1 1 1 130.4084593897568 94.67421967388759 0
144 1 1 1 1 -139.1946118928001 34.34640709256453 0
145 1 1 1 1 -140.8777227500333 -99.51494409500441 0
146 1 1 1 1 -28.68326952902717 -144.6733964906506 0
147 1 1 1 1 102.5051582258375 143.1342403617529 0
148 1 1 1 1 138.6560184249014 -158.1893237181577 0
149 1 1 1 1 6.320870959735657 27.06271821889541 0
150 1 1 1 1 -126.170472889618 135.2395819094266 0
151 1 1 1 1 86.91965492401363 -7.628517678162837 0
152 1 1 1 1 -82.36278202308188 16.90707013109719 0
153 1 1 1 1 -159.9529959348307 -94.7906609319147 0
154 1 1 1 1 42.86621780285375 119.5190647340247 0
155 1 1 1 1 -64.62041345672372 -64.70424956743528 0
156 1 1 1 1 19.15950019727077 4.023691144758743 0
157 1 1 1 1 -11.10858828133189 -66.12142397345934 0
158 1 1 1 1 72.0174125675685 110.2526396609315 0
159 1 1 1 1 12.13934542903013 54.39337873407032 0
160 1 1 1 1 -77.16204885661557 -94.61001030819443 0
161 1 1 1 1 91.42202395954101 48.87622279248407 0
162 1 1 1 1 148.5848521543309 -30.93500405956075 0
163 1 1 1 1 -133.6576654561801 67.90823793911517 0
164 1 1 1 1 60.91610458484811 -49.52080666980859 0
165 1 1 1 1 106.0399961512592 96.97949106768277 0
166 1 1 1 1 -111.851342493303 8.312351655927216 0
167 1 1 1 1 93.04613796688056 118.9792191653166 0
168 1 1 1 1 -1.87191249859643 -0.4164971199264471 0
169 1 1 1 1 -27.19183241246463 -1.113359764916936 0
170 1 1 1 1 -6.907311388922835 10.48103117978255 0
171 1 1 1 1 112.6266882330227 114.6444252945045 0
172 1 1 1 1 -38.59090032966716 143.7171893070233 0
173 1 1 1 1 82.03094592684837 -97.82907916533975 0
174 1 1 1 1 -79.52419731282639 126.0159571530438 0
175 1 1 1 1 116.1542544923005 -140.8066493875775 0
176 1 1 1 1 -83.40750385593086 -118.9491782154746 0
177 1 1 1 1 95.12863235461668 -53.3181764621461 0
178 1 1 1 1 90.22159314089345 -40.30243373575846 0
179 1 1 1 1 -130.123780717804 -21.49391018590111 0
180 1 1 1 1 89.10126010129548 62.41998084469657 0
181 1 1 1 1 144.8447408819525 76.81308220541979 0
182 1 1 1 1 -86.64716302032363 53.81320486880301 0
183 1 1 1 1 91.65356316487757 -90.72410824434724 0
184 1 1 1 1 127.8372950261424 42.67168198750912 0
185 1 1 1 1 60.26060395617657 -8.451674623394155 0
186 1 1 1 1 64.86076164588297 82.39515716169947 0
187 1 1 1 1 -153.6001417714658 -6.849788950331657 0
188 1 1 1 1 136.8307530766578 -97.87324524821905 0
189 1 1 1 1 -146.4268386979252 140.1563850318392 0
190 1 1 1 1 107.4045593925637 -75.58296181197754 0
191 1 1 1 1 -76.07575481970287 61.90294266772892 0
192 1 1 1 1 -116.4117131639716 -94.75886972012937 0
193 1 1 1 1 37.3812583409314 -60.36975449055383 0
194 1 1 1 1 -51.10342535032632 -12.12802684960121 0
195 1 1 1 1 152.6992828848694 -119.6738404397075 0
196 1 1 1 1 58.51140935728631 157.4189536463197 0
197 1 1 1 1 154.1658721178986 14.17404354159311 0
198 1 1 1 1 -60.07215544347406 9.180218071309696 0
199 1 1 1 1 105.0025297128623 -22.10305057200367 0
200 1 1 1 1 52.47789130723558 -119.307954892961 0
201 1 1 1 1 67.40632445561661 -98.0408972227475 0
202 1 1 1 1 -155.8320856182842 -16.2395690142244 0
203 1 1 1 1 -106.7332589977458 -67.70141615913661 0
204 1 1 1 1 -81.71705020086154 -16.29979309357881 0
205 1 1 1 1 129.2364415491734 17.41577343471448 0
206 1 1 1 1 126.5901322159183 140.9036452016323 0
207 1 1 1 1 -45.11416473054609 115.0755271473691 0
208 1 1 1 1 -38.81475055668065 -61.70111153860444 0
209 1 1 1 1 99.39284832413227 132.3285451648254 0
210 1 1 1 1 -148.3446593162725 120.3569038424744 0
211 1 1 1 1 -60.5337236742205 -3.149068522615011 0
212 1 1 1 1 128.2584246171989 154.4415449187061 0
213 1 1 1 1 43.92006732675605 -94.06657635745194 0
214 1 1 1 1 -98.99416859177566 -90.74693323033365 0
215 1 1 1 1 -155.677669871974 35.67472171603112 0
216 1 1 1 1 11.01992149698469 -145.1248688654904 0
217 1 1 1 1 146.2243485096848 -103.5255192633552 0
218 1 1 1 1 35.19193532599132 18.12979414109668 0
219 1 1 1 1 159.5561899436934 35.19388360773237 0
220 1 1 1 1 70.17721778219578 69.64917926549953 0
221 1 1 1 1 -137.2831464148235 -82.43853573910113 0
222 1 1 1 1 -76.5674678596308 94.96352197691147 0
223 1 1 1 1 113.9713303609649 69.21656186927788 0
224 1 1 1 1 116.4357916753255 103.2527994857342 0
225 1 1 1 1 124.3513721565751 28.25226143801231 0
226 1 1 1 1 146.5637038194994 -130.537983761176 0
227 1 1 1 1 -129.5199526260089 144.6696922959865 0
228 1 1 1 1 -35.56263251867236 108.1519015920718 0
229 1 1 1 1 -65.44783010629575 -138.5039746418877 0
230 1 1 1 1 120.5833475673161 -97.79498831622004 0
231 1 1 1 1 142.9887478253798 -83.1542643806431 0
232 1 1 1 1 0.05826442320613978 67.64322709159563 0
233 1 1 1 1 -74.26786884873103 -76.08346750177567 0
234 1 1 1 1 20.46568422307584 40.89304579727269 0
235 1 1 1 1 51.87962957622926 48.51841750784305 0
236 1 1 1 1 69.49314082976787 25.57438233673096 0
237 1 1 1 1 76.84540428466815 121.5332951795332 0
238 1 1 1 1 131.3186709970951 -135.0018358128828 0
239 1 1 1 1 54.85494502914267 66.71006377526197 0
240 1 1 1 1 -93.54770575551782 116.9515655956851 0
241 1 1 1 1 -56.39054428325241 -130.8694052113251 0
242 1 1 1 1 -82.10336486650957 -139.4393693194511 0
243 1 1 1 1 -46.10921830895461 155.4729831056657 0
244 1 1 1 1 135.7223101038836 120.2225356196802 0
245 1 1 1 1 21.229848938923 -40.6619090509096 0
246 1 1 1 1 -149.7603317124743 -32.26175916134179 0
247 1 1 1 1 103.9170818726456 47.27620264089632 0
248 1 1 1 1 -150.2705723620335 21.84937438119505 0
249 1 1 1 1 -19.06457475045551 -104.2086599617541 0
250 1 1 1 1 -145.252155773928 -117.2160797186417 0
251 1 1 1 1 99.59872118941223 -124.5240865801119 0
252 1 1 1 1 -36.72614376813662 55.0503958320418 0
253 1 1 1 1 -105.6548781060562 80.92391369160174 0
254 1 1 1 1 -99.65485646135242 138.7823352865996 0
255 1 1 1 1 -104.1032602374775 -119.2758792623892 0
256 1 1 1 1 141.8467013648869 48.70844742390244 0
257 1 1 1 1 81.98017659455192 38.81958859673048 0
258 1 1 1 1 53.67378435589069 -106.9675382023546 0
259 1 1 1 1 49.10159577347446 -45.04673432763347 0
260 1 1 1 1 85.77226399891759 -80.73534765815592 0
261 1 1 1 1 81.17893838421492 101.033904955705 0
262 1 1 1 1 41.39032419677466 -140.4816410763473 0
263 1 1 1 1 29.94665504538997 66.08710799246805 0
264 1 1 1 1 -109.580694642668 -129.5049621934589 0
265 1 1 1 1 -150.8925557184141 -91.48083322461694 0
266 1 1 1 1 23.29459845292885 -51.63623702568678 0
267 1 1 1 1 -133.4879347547478 -70.61938222651588 0
268 1 1 1 1 -157.2275918970982 114.2105491352463 0
269 1 1 1 1 -18.0744417113799 -28.14949583601987 0
270 1 1 1 1 -36.8175410818948 -25.15307705957355 0
271 1 1 1 1 -106.1077675147861 -42.05102474921685 0
272 1 1 1 1 147.71643542549 4.753856912526999 0
273 1 1 1 1 -100.9218304573093 25.33540931128692 0
274 1 1 1 1 -74.57860855786741 -155.1018639956207 0
275 1 1 1 1 -70.89538225625571 -6.716282738408069 0
276 1 1 1 1 137.0881920149054 -55.00944816363088 0
277 1 1 1 1 -42.2541137506883 72.72436544366667 0
278 1 1 1 1 66.38448704095163 -86.9795384658826 0
279 1 1 1 1 -141.6146645398502 -130.6883014495252 0
280 1 1 1 1 -91.75453311872651 -70.37922803764926 0
281 1 1 1 1 -143.126273595663 -150.4069578767274 0
282 1 1 1 1 -134.9133393066751 -119.3231379366161 0
283 1 1 1 1 2.769520982812878 -63.01044650788381 0
284 1 1 1 1 -153.2257228930331 81.2130551561971 0
285 1 1 1 1 -94.36924177521564 18.03415424298367 0
286 1 1 1 1 -65.90986338662984 99.9264050535956 0
287 1 1 1 1 117.451730274857 1.852199698431093 0
288 1 1 1 1 -93.7345996374417 -6.957558612763847 0
289 1 1 1 1 87.38074256381515 6.243686758338981 0
290 1 1 1 1 42.45078471870409 -74.10280675738119 0
291 1 1 1 1 135.8898860843371 26.54115799574046 0
292 1 1 1 1 134.503597601223 57.93038526019697 0
293 1 1 1 1 127.3317289804482 -79.72395509502763 0
294 1 1 1 1 104.1389312521904 7.507968588171963 0
295 1 1 1 1 -58.23646874540171 113.2844604449745 0
296 1 1 1 1 78.2691567604152 -121.0494262401639 0
297 1 1 1 1 8.108047884010773 -117.0995098061264 0
298 1 1 1 1 62.09149073352734 -120.6239026462203 0
299 1 1 1 1 116.5358726006579 54.94804611926864 0
300 1 1 1 1 55.2528464497411 91.45652935975616 0
301 1 1 1 1 141.1520825648321 99.95501204088816 0
302 1 1 1 1 67.30334940042457 -34.09676861324061 0
303 1 1 1 1 0.7066259801489423 -145.3121312139411 0
304 1 1 1 1 -110.3934989405869 93.39547886577523 0
305 1 1 1 1 128.469535536652 -108.3222764989949 0
306 1 1 1 1 -120.6291704325206 -151.7058555875064 0
307 1 1 1 1 -78.86918923734413 72.29128081475781 0
308 1 1 1 1 100.4020271204374 20.62680161843059 0
309 1 1 1 1 -21.91359095115712 66.54593929671819 0
310 1 1 1 1 -44.98529230283729 -72.08227240983814 0
311 1 1 1 1 61.37862896867119 54.66359792329541 0
312 1 1 1 1 -158.0819011248561 102.4852333333856 0
313 1 1 1 1 -126.2648677433746 45.64567367935871 0
314 1 1 1 1 19.77225154430641 -71.1199747655198 0
315 1 1 1 1 37.33214613007149 -85.63832179861183 0
316 1 1 1 1 -132.7502919088872 21.83160998031579 0
317 1 1 1 1 -16.22525190331237 91.2914750464856 0
318 1 1 1 1 -130.3252037670501 -49.71294612943797 0
319 1 1 1 1 -158.0663972402556 57.42875567756647 0
320 1 1 1 1 -33.15766434026341 -119.5644431212 0
321 1 1 1 1 103.4734135672753 35.66476563467188 0
322 1 1 1 1 -48.17988143723674 -83.6028833588469 0
323 1 1 1 1 -90.87691291446866 -84.30348394960689 0
324 1 1 1 1 157.8609944592947 75.8747207855468 0
325 1 1 1 1 8.233306872740087 84.71492600179957 0
326 1 1 1 1 51.92792021221197 81.92276167998665 0
327 1 1 1 1 51.61130384860121 -55.70096814230024 0
328 1 1 1 1 9.505477410078839 -134.5485630385695 0
329 1 1 1 1 -117.4759394331435 52.3781127487949 0
330 1 1 1 1 -125.4712886382818 159.4995754093634 0
331 1 1 1 1 -68.23635279121373 159.0614735608742 0
332 1 1 1 1 -62.63900766557722 -40.33765991511967 0
333 1 1 1 1 -87.09571305594281 146.7368113031091 0
334 1 1 1 1 132.8014126559927 107.219949408297 0
335 1 1 1 1 33.45889133539976 -97.08254808480177 0
336 1 1 1 1 -25.35507707274704 35.79743255583929 0
337 1 1 1 1 -75.0478825568801 -40.41823920291537 0
338 1 1 1 1 -2.100780050023729 -90.94573433095249 0
339 1 1 1 1 38.99365150186389 150.7147818531249 0
340 1 1 1 1 -157.5072717858297 -134.1979073947151 0
341 1 1 1 1 3.643670477731433 43.00706414331816 0
342 1 1 1 1 -10.71265387304425 135.1106912274877 0
343 1 1 1 1 29.87303619924211 -157.45126151671 0
344 1 1 1 1 -103.489517180174 62.61889088732681 0
345 1 1 1 1 -1.716666622076104 124.9667983022187 0
346 1 1 1 1 -104.9999799597978 129.1797591689769 0
347 1 1 1 1 -123.9619867088911 122.3068039741502 0
348 1 1 1 1 77.34513601556642 150.1976478060674 0
349 1 1 1 1 -24.05897313515712 -19.93050922470988 0
350 1 1 1 1 -42.40120978211149 -52.03330878348109 0
351 1 1 1 1 -69.4992578705935 112.6559329311452 0
352 1 1 1 1 -138.2126146574051 107.1721427805125 0
353 1 1 1 1 42.88293424070201 94.0890710298406 0
354 1 1 1 1 110.7562681988531 80.6504227025475 0
355 1 1 1 1 45.60533432259874 19.20926321121834 0
356 1 1 1 1 -93.96767661895606 -126.2871096365178 0
357 1 1 1 1 -93.58394213706404 130.5218122297676 0
358 1 1 1 1 -60.81503638766321 -78.02838913417207 0
359 1 1 1 1 -110.4832644453727 139.4482705653144 0
360 1 1 1 1 -20.59913392662961 122.8182716188829 0
361 1 1 1 1 80.62661477205424 -49.00762095362791 0
362 1 1 1 1 -12.68735188093555 20.90614775943041 0
363 1 1 1 1 87.15323738836614 23.7399326755893 0
364 1 1 1 1 22.64868467769008 15.65914961443013 0
365 1 1 1 1 31.21095076013145 40.43861493390477 0
366 1 1 1 1 87.35637009063169 73.7661442863087 0
367 1 1 1 1 -143.5758211849793 152.3387284487263 0
368 1 1 1 1 -1.809103829724052 -26.11614045503703 0
369 1 1 1 1 -65.83843006697182 51.63112113610515 0
370 1 1 1 1 14.31805809251105 122.5225131968983 0
371 1 1 1 1 34.34431262245499 126.9389636568887 0
372 1 1 1 1 -58.29505296978589 -103.8315363035295 0
373 1 1 1 1 -92.71150527762674 -136.18744190882 0
374 1 1 1 1 7.319333697875209 -3.379928198101481 0
375 1 1 1 1 -113.1787460801946 -49.50253989926431 0
376 1 1 1 1 -88.7533451194341 28.171320519929 0
377 1 1 1 1 -22.27999681637726 -58.06687781609097 0
378 1 1 1 1 -134.5905121134326 -155.0677365755987 0
379 1 1 1 1 -91.60254696653361 -24.9929149377331 0
380 1 1 1 1 -130.5852050130923 -145.9886314160649 0
381 1 1 1 1 99.69974864264907 -38.14134753034509 0
382 1 1 1 1 49.12767549097507 -133.7414194321459 0
383 1 1 1 1 18.60547092382677 -17.71571924047291 0
384 1 1 1 1 -52.80985481046152 -39.69445025101368 0
385 1 1 1 1 -43.11456413996683 89.79740885483281 0
386 1 1 1 1 66.97346371997153 13.5491898687259 0
387 1 1 1 1 -157.6826379537844 -40.12022763685366 0
388 1 1 1 1 -40.46671338425469 -1.783124897723383 0
389 1 1 1 1 -127.48318206502 77.16054613148142 0
390 1 1 1 1 86.60925312175351 -128.0624411596764 0
391 1 1 1 1 -111.5266833723424 -155.4371345317985 0
392 1 1 1 1 149.041740187722 -155.2353911279125 0
393 1 1 1 1 -118.3619627946475 0.6093492202188315 0
394 1 1 1 1 -2.780680224182788 19.8939072832442 0
395 1 1 1 1 17.68157717250259 132.1146613913899 0
396 1 1 1 1 -29.45424479320226 81.50569351759145 0
397 1 1 1 1 -49.4787964832133 -111.2912814169918 0
398 1 1 1 1 -121.476038301313 -14.11785826327031 0
399 1 1 1 1 -96.11310561911094 -35.57343999637013 0
400 1 1 1 1 2.357656158208812 -49.32020520304967 0
401 1 1 1 1 150.4591141574426 -20.20005170591998 0
402 1 1 1 1 12.06684553859685 -156.0283909076105 0
403 1 1 1 1 155.7037603187371 -108.8586176534563 0
404 1 1 1 1 -27.97852117045767 -157.2384177410771 0
405 1 1 1 1 -26.38280724339143 -68.03220502314983 0
406 1 1 1 1 -146.4477027383599 -57.03690637809736 0
407 1 1 1 1 27.71631712236481 -124.1058245735372 0
408 1 1 1 1 -73.58696233540098 -129.7684475544835 0
409 1 1 1 1 110.5102588775072 -158.8618756616512 0
410 1 1 1 1 -63.65641358552719 -154.5726211702436 0
411 1 1 1 1 -116.515973156175 114.8109551459938 0
412 1 1 1 1 101.294633841895 157.4010993968116 0
413 1 1 1 1 117.9600116971785 37.87325920265891 0
414 1 1 1 1 -80.22262529938888 -104.0066464096552 0
415 1 1 1 1 102.7982844744878 72.58323759370185 0
416 1 1 1 1 132.9785019895214 -3.593559119684045 0
417 1 1 1 1 121.879043988971 -42.10615359169122 0
418 1 1 1 1 -137.8854291049227 120.3092945005136 0
419 1 1 1 1 98.78896723653713 -140.3252770567925 0
420 1 1 1 1 -49.43300038370791 -58.627251927321 0
421 1 1 1 1 -143.0680747033874 -5.905123741744688 0
422 1 1 1 1 -111.461427375547 -9.464366113222638 0
423 1 1 1 1 -116.4198421945069 17.68873913386278 0
424 1 1 1 1 -8.781810102417751 -48.00013995932822 0
425 1 1 1 1 -24.16395790032146 -91.69148686611723 0
426 1 1 1 1 -37.2679042304064 -109.6576900908823 0
427 1 1 1 1 -48.90794523305694 -101.0367061114447 0
428 1 1 1 1 43.38937534643873 -159.4833776022187 0
429 1 1 1 1 157.2213791833229 -65.716397086922 0
430 1 1 1 1 35.90932894138891 0.3443098165566028 0
431 1 1 1 1 142.5299829715571 88.11165202154086 0
432 1 1 1 1 -116.5930000033886 33.14249355965137 0
433 1 1 1 1 49.36357700803029 -66.43705142447097 0
434 1 1 1 1 119.7011438661509 -61.72902356810016 0
435 1 1 1 1 -59.30523823529245 40.47442916703329 0
436 1 1 1 1 -145.518263653526 -44.46437962612993 0
437 1 1 1 1 -123.8746592370525 -102.2852188318247 0
438 1 1 1 1 91.09354332963062 -118.0088605732058 0
439 1 1 1 1 -97.25315402314604 148.3960952548125 0
440 1 1 1 1 -39.95258453125622 37.5263806850117 0
441 1 1 1 1 19.31865497098443 -84.8453491836992 0
442 1 1 1 1 22.39694943247457 -8.102974054499498 0
443 1 1 1 1 118.508374357198 152.3085740103544 0
444 1 1 1 1 73.54038053008733 53.04013199109374 0
445 1 1 1 1 -135.2146904266738 -39.42960388432553 0
446 1 1 1 1 122.4752552568393 130.2850199574963 0
447 1 1 1 1 -90.75804035295789 98.85683062045211 0
448 1 1 1 1 34.92875137241086 -23.23290941362583 0
449 1 1 1 1 -84.49011153210819 -35.97515875677502 0
450 1 1 1 1 143.6491482650141 157.1507448075688 0
451 1 1 1 1 82.64636823309007 131.04352923663 0
452 1 1 1 1 -46.14746520927916 -157.2007385317248 0
453 1 1 1 1 -159.0582804360318 11.91880436685065 0
454 1 1 1 1 67.98864973174662 -135.3752456419781 0
455 1 1 1 1 -89.63716546188823 69.0446676486124 0
456 1 1 1 1 110.7822068215859 -46.4526337373056 0
457 1 1 1 1 158.3556496702881 -157.6163702729743 0
458 1 1 1 1 -20.3060832938429 76.01173414338407 0
459 1 1 1 1 -52.44311890967606 2.402499483618612 0
460 1 1 1 1 53.77812318913794 -154.6937204155478 0
461 1 1 1 1 -135.0251853081719 -11.62913411007068 0
462 1 1 1 1 -132.1615711297459 -134.2959784590268 0
463 1 1 1 1 -33.50727716367658 -84.75309976102966 0
464 1 1 1 1 -50.42986536056105 -26.19247898968058 0
465 1 1 1 1 116.1549754866941 91.23917816831681 0
466 1 1 1 1 -1.936732545073568 33.98423313453156 0
467 1 1 1 1 -155.6287771861784 -124.6521752569298 0
468 1 1 1 1 -158.6257450359817 -146.6087539207507 0
469 1 1 1 1 6.948699682063534 -75.09240386766265 0
470 1 1 1 1 -51.4980158607699 146.5477330624447 0
471 1 1 1 1 100.2994421703876 106.6961304941343 0
472 1 1 1 1 49.22633450630661 30.06917224303837 0
473 1 1 1 1 68.94008437109906 156.4110851841157 0
474 1 1 1 1 150.641405660674 131.1669217844466 0
475 1 1 1 1 -81.70826822992773 -63.65459987545648 0
476 1 1 1 1 157.7732952735026 -83.0891700875932 0
477 1 1 1 1 51.29937635080952 145.3521417349525 0
478 1 1 1 1 -137.0998208802707 8.650376411844974 0
479 1 1 1 1 -7.363248553854049 154.6823645950915 0
480 1 1 1 1 31.72790150661473 -73.60851804062477 0
481 1 1 1 1 -117.5717092815924 103.6943796793491 0
482 1 1 1 1 -7.044575697446874 -76.65542941741688 0
483 1 1 1 1 40.50646229588705 74.61053637750263 0
484 1 1 1 1 103.0543293360703 -150.2342275177908 0
485 1 1 1 1 31.67258179992393 50.88483131582805 0
486 1 1 1 1 159.6139475732195 -138.8090329084036 0
487 1 1 1 1 27.91797738899771 -135.442690285973 0
488 1 1 1 1 104.8988929888956 58.83184413117829 0
489 1 1 1 1 -3.735645745582332 103.7878487002675 0
490 1 1 1 1 -101.2232124657882 -27.0900120620384 0
491 1 1 1 1 114.0177595729619 -105.7851582664098 0
492 1 1 1 1 -66.9246168713843 89.28485037301675 0
493 1 1 1 1 -110.9440337193753 -78.73327606899306 0
494 1 1 1 1 157.9381514603996 -52.46101391163631 0
495 1 1 1 1 -17.44701859850642 149.7515486882805 0
496 1 1 1 1 -35.72435402924519 -14.81188717924707 0
497 1 1 1 1 -9.10563918478428 76.63918770490329 0
498 1 1 1 1 103.3632914452073 -60.50079236790313 0
499 1 1 1 1 -137.0828851985122 -109.8073816694381 0
500 1 1 1 1 -34.09138333350373 67.57158435390156 0
501 1 1 1 1 -98.54058042870616 42.9896865052979 0
502 1 1 1 1 -128.0391682206599 101.2248546415703 0
503 1 1 1 1 56.19711866715249 -140.6249268038698 0
504 1 1 1 1 33.23469028537789 -37.67376936872313 0
505 1 1 1 1 152.1975302339563 86.60598681386824 0
506 1 1 1 1 -75.02316747554562 10.49345344218298 0
507 1 1 1 1 71.53662853027959 -74.01475244077108 0
508 1 1 1 1 -11.37648564471422 -111.5919890920366 0
509 1 1 1 1 -10.32205103621504 42.61603919544709 0
510 1 1 1 1 51.76147059919225 -30.21443863304523 0
511 1 1 1 1 -18.11289813354418 -135.052147056455 0
512 1 1 1 1 128.9549216250244 -67.86591985612553 0
513 1 1 1 1 -25.72738324942736 -112.9315545923756 0
514 1 1 1 1 -85.36498992676215 89.76062647965688 0
515 1 1 1 1 -30.87327406059248 -34.02290377805716 0
516 1 1 1 1 -134.7510415945154 84.43778855938126 0
517 1 1 1 1 58.86811635764798 -18.45128354109085 0
518 1 1 1 1 65.20327043319287 -159.8666610027061 0
519 1 1 1 1 -19.4582967402722 -123.9751569987292 0
520 1 1 1 1 41.27584685081442 -122.4874201198579 0
521 1 1 1 1 -72.4676178427153 -145.2592837317652 0
522 1 1 1 1 -95.59371066236814 -56.21986977820889 0
523 1 1 1 1 95.99524949556604 -79.57905968606869 0
524 1 1 1 1 68.98072398590543 -62.72162749179284 0
525 1 1 1 1 129.5250473714062 -15.52996633326848 0
526 1 1 1 1 25.59802628631002 -27.14190947488331 0
527 1 1 1 1 -115.0782023513804 126.5496581954276 0
528 1 1 1 1 37.71013248121335 -49.5339642196937 0
529 1 1 1 1 -116.326382146519 73.54357622504426 0
530 1 1 1 1 -143.2914088322753 53.53746193773247 0
531 1 1 1 1 55.63527833348991 119.1277363437404 0
532 1 1 1 1 -27.8097367714393 17.76892526842443 0
533 1 1 1 1 97.91495034367472 -2.015328738488904 0
534 1 1 1 1 88.65911533954323 -25.08239371174253 0
535 1 1 1 1 30.94024899349023 -108.1773780047475 0
536 1 1 1 1 -82.11443108064441 158.4724756041407 0
537 1 1 1 1 -91.85157762595406 158.060114113212 0
538 1 1 1 1 78.40533050123315 -87.06084360802197 0
539 1 1 1 1 18.36208122741914 -129.1427510444694 0
540 1 1 1 1 -153.6074152043166 -77.44049774348035 0
541 1 1 1 1 -153.0926165374804 159.3817265380294 0
542 1 1 1 1 -14.03120019972519 -4.373565357678473 0
543 1 1 1 1 -157.6488256559885 -56.70018423801636 0
544 1 1 1 1 -68.94567205114214 -100.7361723944751 0
545 1 1 1 1 12.17806157241728 -46.13768879456816 0
546 1 1 1 1 -78.50744370719298 -28.35400580828704 0
547 1 1 1 1 -11.34983244210289 -159.1106331025849 0
548 1 1 1 1 73.81886354768346 -143.7935393004051 0
549 1 1 1 1 86.65451717266751 -138.0852017315663 0
550 1 1 1 1 17.09102896155113 -107.2386852268436 0
551 1 1 1 1 1.94854329860641 158.9060156099489 0
552 1 1 1 1 13.69357300396959 70.2265421029567 0
553 1 1 1 1 12.80087121619226 158.3435258084638 0
554 1 1 1 1 12.33819083489607 -59.05275409950744 0
555 1 1 1 1 153.7729801467317 -42.35527165551258 0
556 1 1 1 1 115.0550385291347 -119.0026782830018 0
557 1 1 1 1 -131.9811246712945 -91.7852836125432 0
558 1 1 1 1 -156.4112084942937 140.4694014988805 0
559 1 1 1 1 77.41171584921415 91.67451701034767 0
560 1 1 1 1 -105.0054433989104 -2.342528623209432 0
561 1 1 1 1 -71.53709194689807 -111.0595943278769 0
562 1 1 1 1 11.6237988520848 102.1017914159982 0
563 1 1 1 1 -6.399102691213386 -57.65934387322761 0
564 1 1 1 1 -136.102232630628 -61.21020605596553 0
565 1 1 1 1 -13.62096827597949 -89.91361836587352 0
566 1 1 1 1 43.09579037585519 -36.76314607489306 0
567 1 1 1 1 1.703271119859608 -156.2465581820755 0
568 1 1 1 1 115.9774735659986 -22.75536447889013 0
569 1 1 1 1 -159.4094912054777 -26.40538315428262 0
570 1 1 1 1 56.46372025030354 -89.69836849227299 0
571 1 1 1 1 107.040183308474 -10.08729729883754 0
572 1 1 1 1 -47.52480739001075 18.45839277674204 0
573 1 1 1 1 -78.70799765132031 135.6145287541804 0
574 1 1 1 1 27.62820907219438 -60.37603345675493 0
575 1 1 1 1 -121.7313732867093 -112.3106229155259 0
576 1 1 1 1 11.31878067326545 36.96681003037898 0
577 1 1 1 1 77.59098324746077 -132.6384978080622 0
578 1 1 1 1 21.98712802720848 -95.33344009529294 0
579 1 1 1 1 -102.0065823776191 -159.794989165612 0
580 1 1 1 1 -62.88794316047181 -91.62435795311055 0
581 1 1 1 1 69.00523707946923 -19.94574784635208 0
582 1 1 1 1 -31.11243466734439 152.9020888224387 0
583 1 1 1 1 -48.68885330187081 53.60589543557063 0
584 1 1 1 1 27.15987083484879 136.4389243723446 0
585 1 1 1 1 79.16756002118615 65.10180858485097 0
586 1 1 1 1 144.0740689864721 -6.110630273482371 0
587 1 1 1 1 46.90651293553 159.2694346706283 0
588 1 1 1 1 128.3458424815047 -50.09378045813935 0
589 1 1 1 1 6.311032615650959 16.02326868756737 0
590 1 1 1 1 -154.6229822479918 -111.0475704349353 0