

8597 atoms
21454 bonds
1 atom types
1 bond types
-720 720 xlo xhi
-432 432 ylo yhi
-32 32 zlo zhi

Atoms #bpm/sphere

1 1 1 1 1 406.7440303377357 382.6930307598741 0
2 1 1 1 1 -675.0237081592392 -78.19359286946633 0
3 1 1 1 1 -166.3281649969498 -121.0861268856494 0
4 1 1 1 1 589.9789008500613 -16.16759188632483 0
5 1 1 1 1 540.9412146317106 164.6730434717692 0
6 1 1 1 1 43.44236541287648 186.6295112742054 0
7 1 1 1 1 350.9223522836646 119.8646193349157 0
8 1 1 1 1 341.1098287905465 -36.90397615476059 0
9 1 1 1 1 -617.6505165255602 -319.9652015400486 0
10 1 1 1 1 90.87353200912355 295.4287189871216 0
11 1 1 1 1 610.5043109751287 -330.8133627316784 0
12 1 1 1 1 -65.50050058371971 -25.7004184623903 0
13 1 1 1 1 -521.5919692556666 294.7746544736658 0
14 1 1 1 1 45.93106509160691 129.4361282975833 0
15 1 1 1 1 -399.2733616910809 115.8371801776751 0
16 1 1 1 1 518.9967663669115 163.4582322363888 0
17 1 1 1 1 -394.7234986709905 377.0626580844848 0
18 1 1 1 1 -556.3478691514937 -168.3240133619524 0
19 1 1 1 1 633.2989702747736 -31.13713873382847 0
20 1 1 1 1 126.4905203532022 -282.8766782512935 0
21 1 1 1 1 611.4605501739168 315.9482786404192 0
22 1 1 1 1 -525.8643201415666 -53.94950616848303 0
23 1 1 1 1 674.0327505315756 -429.8755223828508 0
24 1 1 1 1 -517.3765105610047 -24.19407711711557 0
25 1 1 1 1 -421.9607806087137 -164.0280324115536 0
26 1 1 1 1 150.7071152888503 -336.9309624606519 0
27 1 1 1 1 -673.1521982184131 59.37454829700067 0
28 1 1 1 1 -674.4256329696284 322.2671423892663 0
29 1 1 1 1 708.920576454859 390.7054353954865 0
30 1 1 1 1 -455.3995149634042 -91.1456366197184 0
31 1 1 1 1 582.9902022011929 153.5329109282226 0
32 1 1 1 1 -420.6185850464099 -190.7306688656281 0
33 1 1 1 1 214.0945881559597 49.42199983828311 0
34 1 1 1 1 -183.4407946378464 -149.9500701113207 0
35 1 1 1 1 433.6415853210563 1.738455758414091 0
36 1 1 1 1 -23.45557801221514 -40.31379905005258 0
37 1 1 1 1 556.0693022177538 31.89010673204319 0
38 1 1 1 1 256.7865068792536 -25.43008175751794 0
39 1 1 1 1 185.2521992911002 407.1891212202223 0
40 1 1 1 1 589.4997280070984 128.5344576670016 0
41 1 1 1 1 -636.2553837558617 132.0425200611907 0
42 1 1 1 1 -96.52847015551731 -253.4741002175414 0
43 1 1 1 1 -338.3969226286087 -210.3365682673331 0
44 1 1 1 1 96.67850828151347 -287.2162318406147 0
45 1 1 1 1 -187.7371784440297 179.273275226505 0
46 1 1 1 1 -122.6530702010369 -423.0919214348194 0
47 1 1 1 1 -459.3204569764516 -197.7053375805548 0
48 1 1 1 1 380.2062417921022 -75.8902035963099 0
49 1 1 1 1 464.075429445463 -184.7543643103761 0
50 1 1 1 1 206.4480087073307 231.3215772300036 0
51 1 1 1 1 -558.8394080010636 63.64504413029124 0
52 1 1 1 1 -385.8964519758123 -347.8551232243311 0
53 1 1 1 1 513.8828591276265 -52.44999482834135 0
54 1 1 1 1 376.6828203674868 404.0197244971561 0
55 1 1 1 1 -674.0769038438992 -243.4941128082984 0
56 1 1 1 1 273.3731823992788 -112.8629657859452 0
57 1 1 1 1 -437.6595864087647 403.7193015780049 0
58 1 1 1 1 75.90463646425189 -228.6994005109704 0
59 1 1 1 1 124.7833307761949 -115.4163122332678 0
60 1 1 1 1 -94.34275627523584 -265.9979408614978 0
61 1 1 1 1 156.0581880939799 -223.1285323649605 0
62 1 1 1 1 -247.5151101269735 33.47449723489899 0
63 1 1 1 1 195.8722913721746 273.8135642375254 0
64 1 1 1 1 292.680652606069 -225.4179712871555 0
65 1 1 1 1 344.8782445209595 -309.3894427272408 0
66 1 1 1 1 158.8860325607388 -160.1474267421468 0
67 1 1 1 1 -403.636056891359 -219.0877253279435 0
68 1 1 1 1 -495.9578028424799 -55.89877792892776 0
69 1 1 1 1 -569.5768958099736 398.8523072021014 0
70 1 1 1 1 515.5081431014298 252.9282780266398 0
71 1 1 1 1 330.0952126857635 -281.3775694948725 0
72 1 1 1 1 190.1386508068953 361.7078992552516 0
73 1 1 1 1 -699.6858825892133 85.75529644022481 0
74 1 1 1 1 120.5403101343268 372.9729136475655 0
75 1 1 1 1 414.9495563604762 267.3408783524935 0
76 1 1 1 1 90.15349293466409 100.8520555990539 0
77 1 1 1 1 254.9189315782579 274.9655687020756 0
78 1 1 1 1 -203.3401616803023 123.8147874179002 0
79 1 1 1 1 313.001388324207 370.261199777345 0
80 1 1 1 1 113.731308905475 405.1588510019443 0
81 1 1 1 1 29.05373540668904 382.2288853698818 0
82 1 1 1 1 -227.5381930080723 -36.01733097822012 0
83 1 1 1 1 -31.73034921665885 -404.3422171177894 0
84 1 1 1 1 613.6061491482506 -232.5195854548939 0
85 1 1 1 1 -170.38389377665 45.10701539792012 0
86 1 1 1 1 665.725863754808 324.9180519321986 0
87 1 1 1 1 635.4756471201438 27.02806663606151 0
88 1 1 1 1 376.1950671428911 310.9008935255323 0
89 1 1 1 1 119.3620478941682 -151.0758348621666 0
90 1 1 1 1 -247.1305925511993 -211.9149820815181 0
91 1 1 1 1 -668.4265279876904 -392.1064142464525 0
92 1 1 1 1 -343.3353962529405 -273.4241642315335 0
93 1 1 1 1 -715.4539511585766 -291.0776243285276 0
94 1 1 1 1 14.32525320387413 424.6244114718556 0
95 1 1 1 1 446.968048415966 -86.2428487133551 0
96 1 1 1 1 293.7670172725817 145.9434375407583 0
97 1 1 1 1 712.461819212785 287.4469160263893 0
98 1 1 1 1 -267.6421702083831 142.2267259152212 0
99 1 1 1 1 -433.186467848337 -175.6854066680389 0
100 1 1 1 1 503.1809555460854 -217.4115736814247 0
101 1 1 1 1 -57.49064875373324 -150.1967650073833 0
102 1 1 1 1 567.3767217649554 48.86830543453129 0
103 1 1 1 1 480.1580691843255 380.8931642193056 0
104 1 1 1 1 489.0355709113831 -344.4346260259664 0
105 1 1 1 1 449.5075676945639 294.7116130812242 0
106 1 1 1 1 338.9169003702712 -397.4647424358628 0
107 1 1 1 1 -41.68207064695037 420.5066657125232 0
108 1 1 1 1 -132.9637743724285 -215.350092480009 0
109 1 1 1 1 655.9151410602428 283.1729851970893 0
110 1 1 1 1 540.2355588929909 -18.59222882020453 0
111 1 1 1 1 -644.706927875515 395.6442471913538 0
112 1 1 1 1 443.1497011988972 308.6745048836173 0
113 1 1 1 1 -463.5764486979462 89.24199157889211 0
114 1 1 1 1 538.5610180318809 -64.95968363698574 0
115 1 1 1 1 -59.69212279400119 58.50665061905369 0
116 1 1 1 1 -45.4635032281949 -213.794525090774 0
117 1 1 1 1 -452.8099508508881 -223.9071142170239 0
118 1 1 1 1 -634.9823988772274 0.9866918909171432 0
119 1 1 1 1 593.3484047413926 275.6557657341089 0
120 1 1 1 1 277.6400781458831 -321.0010187957897 0
121 1 1 1 1 -614.030537219254 195.9728954792267 0
122 1 1 1 1 86.30201533221305 -17.81594158947496 0
123 1 1 1 1 159.0462378030217 77.15092330190373 0
124 1 1 1 1 246.4111359629322 122.9687368098749 0
125 1 1 1 1 -103.5569026573398 -109.922879461536 0
126 1 1 1 1 -445.4794181232755 309.1200388702072 0
127 1 1 1 1 191.6461849529611 -279.5064332146769 0
128 1 1 1 1 -501.5289246093234 -271.0374864185383 0
129 1 1 1 1 573.9820771515633 -210.3191865607069 0
130 1 1 1 1 -583.2633909335702 309.7857024962613 0
131 1 1 1 1 -430.3215316963217 274.4810333335853 0
132 1 1 1 1 -653.3659456334626 -41.97072807631196 0
133 1 1 1 1 -258.2354623024263 391.6045226194884 0
134 1 1 1 1 21.08583681900871 198.3264136165747 0
135 1 1 1 1 289.4390615160581 -390.1416190229483 0
136 1 1 1 1 123.917434706606 174.1040049245771 0
137 1 1 1 1 383.1935403726291 343.9252087351242 0
138 1 1 1 1 126.4792429515826 288.3078760878086 0
139 1 1 1 1 -662.8337969313584 169.8598270131404 0
140 1 1 1 1 -611.0874957494169 -77.79766404675911 0
141 1 1 1 1 167.1135928368632 23.24300310919506 0
142 1 1 1 1 332.1747498342213 -29.57192396780386 0
143 1 1 1 1 -468.4219504638042 266.1242155325266 0
144 1 1 1 1 45.25455361786408 -265.3772390839913 0
145 1 1 1 1 297.6793635539998 -34.57240371082509 0
146 1 1 1 1 528.3262215500067 -282.3244111751375 0
147 1 1 1 1 -545.4757034242654 198.4449751512706 0
148 1 1 1 1 -78.37989564167367 -305.910375803451 0
149 1 1 1 1 -671.7257833740135 27.55944229101601 0
150 1 1 1 1 -511.6781145389611 144.0274652536668 0
151 1 1 1 1 -427.721644513437 -109.4031109922487 0
152 1 1 1 1 -475.5709815258983 374.1560421961227 0
153 1 1 1 1 -419.5220951272816 341.4501008464252 0
154 1 1 1 1 -403.9859485823624 133.5278723230431 0
155 1 1 1 1 125.3006377881962 104.35899473533 0
156 1 1 1 1 574.4487600838727 -194.6289714578836 0
157 1 1 1 1 655.700696625915 -413.5182075549618 0
158 1 1 1 1 -365.8717330858957 -245.6114143629628 0
159 1 1 1 1 -6.112798566329957 -330.5621070404091 0
160 1 1 1 1 509.5984086343101 317.4154760918075 0
161 1 1 1 1 158.2600392323387 -242.3653682243926 0
162 1 1 1 1 375.3158839099856 -364.0884370795382 0
163 1 1 1 1 59.65475753721364 259.6168432292889 0
164 1 1 1 1 52.81530141211727 -113.7358689447632 0
165 1 1 1 1 370.3253075181235 113.8968398831801 0
166 1 1 1 1 298.5858813210906 -424.5676306415724 0
167 1 1 1 1 504.528840906903 260.6800961458224 0
168 1 1 1 1 -236.3931898956813 -286.5597101939701 0
169 1 1 1 1 680.3355081769232 -266.2999734487481 0
170 1 1 1 1 -620.6421876296015 -194.9283025984408 0
171 1 1 1 1 -649.6173186528165 -374.1108943995374 0
172 1 1 1 1 217.2747125022102 -86.40306121263632 0
173 1 1 1 1 -593.9801108512013 -83.59297120182902 0
174 1 1 1 1 200.8929982935314 -93.63226309247727 0
175 1 1 1 1 571.7335348219615 416.8265658076813 0
176 1 1 1 1 -301.4757847105312 3.688677005642887 0
177 1 1 1 1 660.0888534169269 -127.9645288295836 0
178 1 1 1 1 -133.258557576165 226.4328245294405 0
179 1 1 1 1 -426.2455992136977 50.3779789710789 0
180 1 1 1 1 678.3840727378497 -282.1078882277585 0
181 1 1 1 1 -491.0162378465161 -405.4276445095655 0
182 1 1 1 1 364.7392590279721 -347.8737815326107 0
183 1 1 1 1 661.6802602476444 376.0708291620714 0
184 1 1 1 1 707.7151863605468 260.4686487452334 0
185 1 1 1 1 714.4108756010423 120.1298777763793 0
186 1 1 1 1 295.226350458533 217.8035070441828 0
187 1 1 1 1 -595.910378110356 284.6588380768428 0
188 1 1 1 1 639.437639295187 315.4584563201013 0
189 1 1 1 1 503.6957206583522 211.1318275279906 0
190 1 1 1 1 -554.7594187077847 289.2230049178604 0
191 1 1 1 1 -273.3775231263139 173.8077325010651 0
192 1 1 1 1 463.6028768459819 -412.8936806658196 0
193 1 1 1 1 464.4267273714477 184.2425278449226 0
194 1 1 1 1 19.56029020557219 -261.8481221799385 0
195 1 1 1 1 -296.9076270251539 298.5647646704908 0
196 1 1 1 1 -36.84483687722411 122.6437302786579 0
197 1 1 1 1 285.4353735920007 -310.1433774801074 0
198 1 1 1 1 -708.4232566076882 -319.2908203531012 0
199 1 1 1 1 -271.3096274364201 49.66907705385268 0
200 1 1 1 1 620.6878205994892 -212.2367020511703 0
201 1 1 1 1 -441.5530051795372 114.8393996296996 0
202 1 1 1 1 -83.9020012004745 -231.367542630354 0
203 1 1 1 1 -240.7370357059349 122.232931917757 0
204 1 1 1 1 197.4945568366501 55.26753503796601 0
205 1 1 1 1 -541.3388484571883 26.65347051721381 0
206 1 1 1 1 292.6157614365352 121.9604291503634 0
207 1 1 1 1 -632.5663670713744 -326.996033140885 0
208 1 1 1 1 363.5585961137019 341.5170891941611 0
209 1 1 1 1 488.8025398244879 -420.3251003738345 0
210 1 1 1 1 -188.8468327314045 57.03205895812738 0
211 1 1 1 1 -182.5973959746684 -246.3114006671658 0
212 1 1 1 1 178.1538235017431 -260.8058834609694 0
213 1 1 1 1 -471.5522608733569 -339.9762065497886 0
214 1 1 1 1 37.8394620239153 26.64759563476628 0
215 1 1 1 1 277.7696068223571 -235.535010320471 0
216 1 1 1 1 231.4006987903875 -287.0648640734577 0
217 1 1 1 1 461.6661592934597 110.6698362229449 0
218 1 1 1 1 -606.1326879942243 -54.77712196346164 0
219 1 1 1 1 459.394821818034 46.79562484873844 0
220 1 1 1 1 -30.3907633005 -246.5384240208898 0
221 1 1 1 1 373.9381445044355 149.5155916250185 0
222 1 1 1 1 -235.1424688987638 -193.5077691244012 0
223 1 1 1 1 139.6463938433609 382.4677265144993 0
224 1 1 1 1 -86.20610665577976 -29.28156240817532 0
225 1 1 1 1 -55.56876734421485 139.5393412191427 0
226 1 1 1 1 -509.9020250086215 55.58328692762387 0
227 1 1 1 1 416.4292308113977 315.8823805828623 0
228 1 1 1 1 -380.0565840912971 337.4026846046041 0
229 1 1 1 1 -255.9994973469684 -306.3052722039847 0
230 1 1 1 1 47.69584340832466 329.0736247036512 0
231 1 1 1 1 337.9683605683911 -387.494217898107 0
232 1 1 1 1 251.6721733354383 -106.2600266900317 0
233 1 1 1 1 15.49042102972555 155.3949584452653 0
234 1 1 1 1 -30.66465160034284 219.5134296980964 0
235 1 1 1 1 -661.1027097568991 9.485638468837976 0
236 1 1 1 1 -219.9451298318003 73.66232126665284 0
237 1 1 1 1 -239.2091781489074 329.8768560060239 0
238 1 1 1 1 -146.6250247123313 -389.2022281440581 0
239 1 1 1 1 138.9094788710893 298.6936777874887 0
240 1 1 1 1 619.7036540135318 -33.19699445018591 0
241 1 1 1 1 -611.1617719289528 -389.4996851280273 0
242 1 1 1 1 -93.80821070511331 264.9610646360344 0
243 1 1 1 1 63.70284413787408 101.9963006330671 0
244 1 1 1 1 -557.6626667623764 -314.2921320603504 0
245 1 1 1 1 -94.33059095450494 -137.9848275191349 0
246 1 1 1 1 589.1375466893462 -400.0694376023038 0
247 1 1 1 1 -289.4110947269169 -130.5319927715087 0
248 1 1 1 1 -389.3923043811658 -219.4123048161237 0
249 1 1 1 1 -142.3412928580583 81.61411351591255 0
250 1 1 1 1 473.2205821836622 405.9691512367098 0
251 1 1 1 1 -516.9167421619868 189.6350762479036 0
252 1 1 1 1 571.6561244938007 -321.0079377491503 0
253 1 1 1 1 648.7175793047213 -148.105189842336 0
254 1 1 1 1 320.0898156493474 262.9677094863274 0
255 1 1 1 1 -68.62027624286554 -177.2091937938063 0
256 1 1 1 1 -160.8472042018184 -313.9615126716145 0
257 1 1 1 1 574.8472660212185 102.3858150616012 0
258 1 1 1 1 24.23019265943685 -381.868146095028 0
259 1 1 1 1 618.3023734599724 224.7920164437076 0
260 1 1 1 1 -262.5551402071548 -350.1714529798181 0
261 1 1 1 1 172.6936385967913 38.78558450123842 0
262 1 1 1 1 275.3181112641382 -260.4701160710004 0
263 1 1 1 1 431.4536063817327 385.748364765695 0
264 1 1 1 1 -696.3165971273309 -38.4737643425475 0
265 1 1 1 1 -172.8732923183962 -374.48238431229 0
266 1 1 1 1 281.1387632756305 -10.77709971378232 0
267 1 1 1 1 -555.7264727659494 -88.55184928806386 0
268 1 1 1 1 -472.2730950122891 167.8394469818187 0
269 1 1 1 1 150.0622426066152 27.03608589134672 0
270 1 1 1 1 -93.65833708204639 81.18261127373035 0
271 1 1 1 1 -37.76415781570086 -52.51195449241095 0
272 1 1 1 1 306.9853545603251 281.6848238264042 0
273 1 1 1 1 220.1452526568666 -143.1274407267135 0
274 1 1 1 1 -498.1080494154016 331.3525603143701 0
275 1 1 1 1 57.70678211441827 -65.13232928280377 0
276 1 1 1 1 137.533826245871 -281.1383149075076 0
277 1 1 1 1 236.3051404523283 -377.4959401652317 0
278 1 1 1 1 -328.3931909518373 -395.7498245441738 0
279 1 1 1 1 -183.0142865618185 -35.87910005222977 0
280 1 1 1 1 -75.74770997588792 -366.7570961309459 0
281 1 1 1 1 -1.549652905754897 303.2766817510815 0
282 1 1 1 1 -443.9736614258487 419.4385858209706 0
283 1 1 1 1 629.7436548854869 221.4611091087178 0
284 1 1 1 1 228.0522128922347 66.70401168938662 0
285 1 1 1 1 -719.6137791380037 201.5539633237949 0
286 1 1 1 1 327.7950447284447 -375.9918919897065 0
287 1 1 1 1 708.70545165414 -2.958733291198541 0
288 1 1 1 1 551.8822634566125 80.9418158163478 0
289 1 1 1 1 456.7632892532588 245.9231476095703 0
290 1 1 1 1 675.8809793673281 226.4722043936204 0
291 1 1 1 1 614.0872723867874 180.230059177729 0
292 1 1 1 1 -196.089591285579 7.846272535705907 0
293 1 1 1 1 -62.77035760352726 -296.768987292035 0
294 1 1 1 1 483.7083567715417 -356.0129812429444 0
295 1 1 1 1 171.7819212078314 128.3537669584575 0
296 1 1 1 1 351.2113231581393 407.6245312713119 0
297 1 1 1 1 -609.4961608001506 -340.0245055534506 0
298 1 1 1 1 -446.5544839724491 213.7512756787862 0
299 1 1 1 1 -473.0081989282455 -177.6770224640677 0
300 1 1 1 1 630.830659552051 396.5350671362294 0
301 1 1 1 1 247.1190944583336 -197.35637465797 0
302 1 1 1 1 -687.1031229798641 281.399501733567 0
303 1 1 1 1 -23.46534956655137 272.1752293878674 0
304 1 1 1 1 -308.6263281588747 -384.6383040114005 0
305 1 1 1 1 539.4026884345756 -308.2415413490885 0
306 1 1 1 1 690.4048588400601 10.94430317659396 0
307 1 1 1 1 160.3546559855352 7.784620481657271 0
308 1 1 1 1 37.2329804188131 83.59286781705646 0
309 1 1 1 1 -626.9079867221939 -203.0939735780072 0
310 1 1 1 1 621.9700619939363 26.31122168055202 0
311 1 1 1 1 49.78359285071656 105.141583311597 0
312 1 1 1 1 -73.16597704746289 -7.803813729967203 0
313 1 1 1 1 -502.4709292600878 -415.961410580803 0
314 1 1 1 1 -535.7190486491427 193.1706529459669 0
315 1 1 1 1 -491.6445510869632 -131.55138569366 0
316 1 1 1 1 530.3992978069325 227.8402671718086 0
317 1 1 1 1 335.4645672405561 -422.9135037751994 0
318 1 1 1 1 8.943483848676692 233.5050318232198 0
319 1 1 1 1 -236.8436285952784 -363.2538499371841 0
320 1 1 1 1 -331.2017058605862 -59.3244658373352 0
321 1 1 1 1 540.2004761513044 181.5481930265022 0
322 1 1 1 1 -349.8340525847993 159.3091587618286 0
323 1 1 1 1 496.9890133891265 -307.1415835017305 0
324 1 1 1 1 133.7698209876601 353.0695990263181 0
325 1 1 1 1 164.8384214325125 -255.2787834426507 0
326 1 1 1 1 -539.4776635284487 -162.2148880143906 0
327 1 1 1 1 -581.5088456051454 280.0304356415571 0
328 1 1 1 1 -59.00828593095207 283.1356011826607 0
329 1 1 1 1 -315.1476945664702 -319.6779795770748 0
330 1 1 1 1 -718.2125863908617 -346.0667775051048 0
331 1 1 1 1 -555.6551651038808 82.32208844279057 0
332 1 1 1 1 53.51443549287467 -398.1669778601535 0
333 1 1 1 1 261.0680915040773 313.1401675061046 0
334 1 1 1 1 476.4890726212357 321.1660357610945 0
335 1 1 1 1 -621.0031442535334 360.4337331110227 0
336 1 1 1 1 162.7575929786004 317.7837135811079 0
337 1 1 1 1 -492.2956668023227 276.3762810367955 0
338 1 1 1 1 388.5892753843768 -83.49169998398327 0
339 1 1 1 1 96.91904163787103 -155.1688403964229 0
340 1 1 1 1 -481.8832888938058 -80.56800012345303 0
341 1 1 1 1 -560.7914922583287 374.4663049073706 0
342 1 1 1 1 -634.4977629057256 -14.94469385140098 0
343 1 1 1 1 -368.068569049291 -401.6158497012369 0
344 1 1 1 1 219.5124077024648 176.3474638556485 0
345 1 1 1 1 542.3778378297106 -287.0968797777388 0
346 1 1 1 1 -67.65677734048643 101.9516610353694 0
347 1 1 1 1 -603.5860526226238 278.7018802032449 0
348 1 1 1 1 -412.5381726582619 227.8515970096184 0
349 1 1 1 1 352.6667412856166 -0.2178423175847115 0
350 1 1 1 1 313.3369087529545 171.960617046161 0
351 1 1 1 1 183.5860111556348 -98.52205061352413 0
352 1 1 1 1 -577.7370749639937 12.14072784328795 0
353 1 1 1 1 110.9559615642341 168.3710698764328 0
354 1 1 1 1 75.9007641258014 -159.0057883114675 0
355 1 1 1 1 88.40022488187526 357.6831374388694 0
356 1 1 1 1 604.5665507309395 170.2653533059429 0
357 1 1 1 1 -53.94262574762831 -255.7608441328147 0
358 1 1 1 1 341.2502772002026 -360.6840988499117 0
359 1 1 1 1 -84.43045936294413 -105.0455095057357 0
360 1 1 1 1 141.6254098914521 332.6712526543041 0
361 1 1 1 1 -45.09021153583569 173.7688829805416 0
362 1 1 1 1 165.7845746856567 261.5787075060777 0
363 1 1 1 1 -329.5958234210978 -346.7216266804995 0
364 1 1 1 1 269.4364243222813 72.7359546665632 0
365 1 1 1 1 586.3475437674249 10.38586833463376 0
366 1 1 1 1 -93.97800868294394 -15.2423110616096 0
367 1 1 1 1 439.8965824628904 285.6678990781937 0
368 1 1 1 1 76.99195270058374 86.07298441214164 0
369 1 1 1 1 -707.649835406061 140.7382936280234 0
370 1 1 1 1 -299.3503711585995 -57.44496672580556 0
371 1 1 1 1 142.5598468104739 322.402302349187 0
372 1 1 1 1 62.87548341663205 54.75835705334532 0
373 1 1 1 1 -642.7929256028755 -183.7708265891509 0
374 1 1 1 1 -571.9484129898128 -108.5105408959619 0
375 1 1 1 1 -439.9149716936099 127.0520468930428 0
376 1 1 1 1 -453.812707679006 -106.7932167289916 0
377 1 1 1 1 344.4833291738107 400.6060605790826 0
378 1 1 1 1 -554.9710155974192 119.2976777835062 0
379 1 1 1 1 -616.9727697630048 -207.009066280322 0
380 1 1 1 1 -704.5714578920002 -32.42787659894202 0
381 1 1 1 1 -351.3420051133776 -117.9358678689609 0
382 1 1 1 1 2.652344603243932 157.6010990553258 0
383 1 1 1 1 -398.0842066478915 88.31167175913129 0
384 1 1 1 1 611.2045114278783 305.5933554338999 0
385 1 1 1 1 327.4803210147479 34.14383153454992 0
386 1 1 1 1 684.9210375412063 -142.0712070010056 0
387 1 1 1 1 622.4625452813648 -252.4997393773852 0
388 1 1 1 1 0.4563821132455814 65.61966894605047 0
389 1 1 1 1 719.2672889652997 -279.3852180235352 0
390 1 1 1 1 688.8388865006818 310.5722961600295 0
391 1 1 1 1 -208.5416912106804 104.4269850999367 0
392 1 1 1 1 -234.9039635135527 -117.4016178203153 0
393 1 1 1 1 585.410607890034 -214.0117894152498 0
394 1 1 1 1 412.5872071346539 289.2054953549891 0
395 1 1 1 1 -688.9061654900518 -235.1114509967254 0
396 1 1 1 1 -330.966330527655 239.2776194301464 0
397 1 1 1 1 -325.8744498023141 309.2764425303683 0
398 1 1 1 1 115.7633144184078 56.42816941707446 0
399 1 1 1 1 499.3803240654538 -343.1997793961224 0
400 1 1 1 1 104.9887175126526 -316.6446322224318 0
401 1 1 1 1 636.5322920655758 113.1598480191304 0
402 1 1 1 1 520.4673791640248 -84.82163824632988 0
403 1 1 1 1 471.6222523171866 82.46095376566495 0
404 1 1 1 1 -170.9244607989058 176.3183680550328 0
405 1 1 1 1 479.7651465825722 11.51690634232432 0
406 1 1 1 1 99.79059667601428 130.5102289119208 0
407 1 1 1 1 -112.6683222424791 311.8441101484998 0
408 1 1 1 1 -269.8131159949356 320.052634281919 0
409 1 1 1 1 -465.2730633991094 291.5279988529866 0
410 1 1 1 1 -113.7122961434936 -26.34131178871564 0
411 1 1 1 1 -358.3131602197466 412.8644506734056 0
412 1 1 1 1 542.5704860928258 -162.4722689961791 0
413 1 1 1 1 160.439534049829 -323.5625673051656 0
414 1 1 1 1 -214.5390519405381 -319.6684139299013 0
415 1 1 1 1 -665.4131160472588 -254.7717353575381 0
416 1 1 1 1 406.1630795487247 94.0376406124509 0
417 1 1 1 1 694.3072488736568 202.0484486286299 0
418 1 1 1 1 498.8552698465114 269.4902490637003 0
419 1 1 1 1 652.3947115547096 -67.43414147532195 0
420 1 1 1 1 40.62428928198131 -307.5689745160272 0
421 1 1 1 1 -157.5419153519254 5.303087478588964 0
422 1 1 1 1 -501.7381934920331 -174.7580020293691 0
423 1 1 1 1 -131.5884023225001 -240.3371094614984 0
424 1 1 1 1 -413.0835438251459 137.0849379948783 0
425 1 1 1 1 -163.0700258772592 364.5708148713599 0
426 1 1 1 1 -662.3526798317612 135.4104382028928 0
427 1 1 1 1 519.2214941899379 357.664286587415 0
428 1 1 1 1 510.1247492640775 229.5019748436198 0
429 1 1 1 1 219.2902798071453 -59.49083952330801 0
430 1 1 1 1 534.728514631008 -225.3641497072065 0
431 1 1 1 1 -231.0152527623352 -268.7844788178795 0
432 1 1 1 1 -311.0075215498884 -217.0650841061283 0
433 1 1 1 1 99.38093952759471 290.8453455385372 0
434 1 1 1 1 -209.3733077166503 303.7592633915535 0
435 1 1 1 1 -58.84507603536758 407.6627160726526 0
436 1 1 1 1 191.0886006014247 248.3437908581132 0
437 1 1 1 1 -432.9750194329062 161.1841518415846 0
438 1 1 1 1 9.842489094592565 58.17608896956699 0
439 1 1 1 1 238.061569028598 39.29016911028384 0
440 1 1 1 1 -159.2770849021363 -274.0158873501898 0
441 1 1 1 1 -467.0312891235164 -256.8390753764373 0
442 1 1 1 1 96.58787674697157 272.9349573449149 0
443 1 1 1 1 315.0288339487652 32.38079932980827 0
444 1 1 1 1 -536.2782655468145 -428.2595853125109 0
445 1 1 1 1 319.0763442855707 152.9490280455862 0
446 1 1 1 1 -518.3376524135855 161.5547605737456 0
447 1 1 1 1 358.1038292315675 -400.6665032511849 0
448 1 1 1 1 600.4572355198839 99.32257802515949 0
449 1 1 1 1 -622.1848438197955 -293.5791277477161 0
450 1 1 1 1 -499.8624646714943 315.675307595896 0
451 1 1 1 1 -499.2334870574276 -10.37983541372614 0
452 1 1 1 1 579.7730337091625 -99.28118065761225 0
453 1 1 1 1 -598.2834441566943 -115.088920610615 0
454 1 1 1 1 629.0237826534647 143.8367555810752 0
455 1 1 1 1 -229.0690514946476 296.257474520704 0
456 1 1 1 1 -278.9003825342751 -221.8983363578042 0
457 1 1 1 1 212.1765663543164 -45.51389333248216 0
458 1 1 1 1 616.7685203658109 -360.6609670553693 0
459 1 1 1 1 -699.7142946870799 -150.2704535341185 0
460 1 1 1 1 -550.1529050341353 55.30988699979264 0
461 1 1 1 1 -153.4693807607692 72.83611466106316 0
462 1 1 1 1 -224.8574799769438 252.166518787579 0
463 1 1 1 1 -6.8255055371244 -356.280026847934 0
464 1 1 1 1 -227.164975261213 428.6235574222901 0
465 1 1 1 1 473.6663594667771 -100.5389524309204 0
466 1 1 1 1 7.08255053262917 -98.11554537471483 0
467 1 1 1 1 -489.358868002351 108.85120974985 0
468 1 1 1 1 120.4691252901102 -420.371195216628 0
469 1 1 1 1 60.76632788259019 400.5871490831801 0
470 1 1 1 1 452.6540803965502 -189.5971257194118 0
471 1 1 1 1 -611.1615190879554 -236.3360674523177 0
472 1 1 1 1 -199.2570548119329 -74.24060769366747 0
473 1 1 1 1 185.8866066445247 -41.9977823607523 0
474 1 1 1 1 246.5729959670343 51.88162948198999 0
475 1 1 1 1 -211.9349235113163 -229.8848760392647 0
476 1 1 1 1 -446.2108945678903 264.9024399134604 0
477 1 1 1 1 194.437547364262 188.7045337083744 0
478 1 1 1 1 -261.5534771176883 -395.2290411304533 0
479 1 1 1 1 -381.750238788612 -327.7646697284565 0
480 1 1 1 1 -271.2004191170668 -49.03351652071757 0
481 1 1 1 1 324.295178842408 174.3946100660987 0
482 1 1 1 1 -64.63727727064588 333.002069603376 0
483 1 1 1 1 421.062013417956 95.19638816633562 0
484 1 1 1 1 -636.9024780892925 -126.5687908043552 0
485 1 1 1 1 -474.7298041379802 -293.4938170717256 0
486 1 1 1 1 -111.5734582985269 -381.7677862425997 0
487 1 1 1 1 667.4092669822455 -22.30613382862339 0
488 1 1 1 1 -93.14845389180721 132.5075183209677 0
489 1 1 1 1 675.2880383957509 400.1248007636212 0
490 1 1 1 1 -605.8250701946097 346.5751170729936 0
491 1 1 1 1 -56.49422733000267 -193.2647919166701 0
492 1 1 1 1 -206.1002808864905 149.3278151997877 0
493 1 1 1 1 -678.7056737203048 -263.2243257506211 0
494 1 1 1 1 366.7592353473185 80.53477549655895 0
495 1 1 1 1 321.0399540985775 -224.7238050864165 0
496 1 1 1 1 -246.5695241044749 257.2198242564446 0
497 1 1 1 1 -555.9529274511539 -285.342991037235 0
498 1 1 1 1 -466.6691258497627 -388.4041354881342 0
499 1 1 1 1 365.7588269291496 167.3329703693989 0
500 1 1 1 1 201.505861131226 41.74079554686682 0
501 1 1 1 1 -470.8467556469703 393.5615989895039 0
502 1 1 1 1 699.1873420606769 -69.21637194233534 0
503 1 1 1 1 174.3169433525131 59.54159386292605 0
504 1 1 1 1 -649.2255689086086 -257.5823326418603 0
505 1 1 1 1 -173.9335556491287 -178.7872214061594 0
506 1 1 1 1 -69.63791274762821 316.4432817458405 0
507 1 1 1 1 342.4770576742969 304.2133320512737 0
508 1 1 1 1 407.4735379204969 -232.7502606226312 0
509 1 1 1 1 330.3341574625749 -183.021898510598 0
510 1 1 1 1 -572.3269119881636 -312.6595217185653 0
511 1 1 1 1 294.9750850743037 -247.7638311114982 0
512 1 1 1 1 -39.84637109826508 132.8996382272782 0
513 1 1 1 1 638.9529982534102 278.7572490314093 0
514 1 1 1 1 -384.5212658175989 347.2894176150401 0
515 1 1 1 1 -231.8683373600915 -211.279583949793 0
516 1 1 1 1 156.4691608312957 374.891172095254 0
517 1 1 1 1 -377.4964647839352 45.47514424178394 0
518 1 1 1 1 576.2672944824217 208.576317349241 0
519 1 1 1 1 568.1305222786289 327.7515538775333 0
520 1 1 1 1 123.5326143676535 -322.0798094984912 0
521 1 1 1 1 -442.272188764522 67.20832578805323 0
522 1 1 1 1 -239.5387183228626 -312.6605061874619 0
523 1 1 1 1 206.6690587761997 -235.8365143853945 0
524 1 1 1 1 -307.8022240143132 241.1323300781709 0
525 1 1 1 1 600.9638134492195 371.4915251654111 0
526 1 1 1 1 -678.8329067666663 253.8075267750613 0
527 1 1 1 1 -646.2426310654355 30.56121165933382 0
528 1 1 1 1 -271.9946983815227 -409.9986514718058 0
529 1 1 1 1 135.8632333446981 398.6909624454825 0
530 1 1 1 1 -276.6382162609006 157.0181556700642 0
531 1 1 1 1 536.7911075604245 -366.4568400868629 0
532 1 1 1 1 -702.1657119475084 -91.5977512848047 0
533 1 1 1 1 -479.9689039593036 132.4013111194756 0
534 1 1 1 1 364.4949748879712 -302.5926662520379 0
535 1 1 1 1 -213.1396795915983 -395.3526763103903 0
536 1 1 1 1 -524.7835350354751 199.2812613581604 0
537 1 1 1 1 452.93956287571 176.3311974585292 0
538 1 1 1 1 -585.3704568427709 327.2554518135087 0
539 1 1 1 1 303.9055237418398 -265.8293478723492 0
540 1 1 1 1 466.9352466273144 -127.077148230477 0
541 1 1 1 1 -49.39832079603093 -383.004927110249 0
542 1 1 1 1 -94.72638512022161 294.9382662166727 0
543 1 1 1 1 320.7458311108203 16.8653004364478 0
544 1 1 1 1 -336.797460359927 184.3453095743088 0
545 1 1 1 1 485.59150620592 -121.752292572539 0
546 1 1 1 1 288.1753059690554 237.0371473266324 0
547 1 1 1 1 -439.6530790715005 56.3253082938964 0
548 1 1 1 1 -676.0939333105537 -48.19436419831277 0
549 1 1 1 1 32.95195369910766 -322.182369015167 0
550 1 1 1 1 95.06049130035763 -249.2184462445423 0
551 1 1 1 1 -190.693208649396 -203.7361097733781 0
552 1 1 1 1 626.3172885765209 -276.0242066359306 0
553 1 1 1 1 -570.5176080648585 353.5325571053869 0
554 1 1 1 1 219.2915171743729 90.18774618383372 0
555 1 1 1 1 -282.2826258037711 -207.454386373743 0
556 1 1 1 1 -417.40835598858 240.3351744243644 0
557 1 1 1 1 259.8254959649901 -78.79949259827532 0
558 1 1 1 1 187.8450908016669 -28.54665959885836 0
559 1 1 1 1 -94.33268839062805 330.1643963098239 0
560 1 1 1 1 -555.8154997432378 -338.1080639383712 0
561 1 1 1 1 -95.76904609160727 276.3999877988143 0
562 1 1 1 1 225.6592065399688 225.309088604564 0
563 1 1 1 1 31.7172165789201 14.12916148780249 0
564 1 1 1 1 2.779391784122936 -21.0714286029658 0
565 1 1 1 1 -642.2347158592263 158.4364235535193 0
566 1 1 1 1 -486.9094496582845 -384.9876827462835 0
567 1 1 1 1 614.7782969041227 -125.2581915752625 0
568 1 1 1 1 -31.93291326988367 53.29796446260156 0
569 1 1 1 1 157.8836613115707 343.7640298580202 0
570 1 1 1 1 -233.3844098220033 351.4129727741961 0
571 1 1 1 1 318.9885506704259 205.6241014704445 0
572 1 1 1 1 -217.4352324714609 -349.8960978715638 0
573 1 1 1 1 -269.3204390820778 -291.2843859662206 0
574 1 1 1 1 -52.23265734797201 -84.86676945230983 0
575 1 1 1 1 -62.91406731866437 205.5934858482858 0
576 1 1 1 1 -8.890367774717447 131.9632198536756 0
577 1 1 1 1 -422.5986350417268 -406.3592670812101 0
578 1 1 1 1 -405.0014501647387 -279.4622658730199 0
579 1 1 1 1 -250.9797126490174 335.0271028175016 0
580 1 1 1 1 365.8372785581819 -146.6893936149996 0
581 1 1 1 1 267.9863117760071 -271.7061922377293 0
582 1 1 1 1 85.24689881116103 317.0313272056942 0
583 1 1 1 1 168.9484474024147 91.44204673106071 0
584 1 1 1 1 201.5676432108481 -26.29453432292581 0
585 1 1 1 1 528.7499324294026 148.1954928559508 0
586 1 1 1 1 695.7325166047831 -251.3202391612684 0
587 1 1 1 1 -210.2632836802463 -427.8801990300922 0
588 1 1 1 1 -662.5183085571709 419.7489198253106 0
589 1 1 1 1 -78.80672436690838 411.5601133986988 0
590 1 1 1 1 556.1559685050499 -156.6187412975271 0