

2168 atoms
5337 bonds
1 atom types
1 bond types
-503.9999999999999 503.9999999999999 xlo xhi
-302.4 302.4 ylo yhi
-32 32 zlo zhi

Atoms #bpm/sphere

1 1 1 1 1 -7.905646351967413 -220.8948947330093 0
2 1 1 1 1 210.3058968460309 74.43535027710848 0
3 1 1 1 1 -363.5774990951078 -226.495055844353 0
4 1 1 1 1 223.0834652571674 -296.9936147396977 0
5 1 1 1 1 -147.4486734359082 149.4691276926511 0
6 1 1 1 1 179.0545832573396 -12.59560272414292 0
7 1 1 1 1 -418.857817646414 115.382373486856 0
8 1 1 1 1 -27.95889901163889 101.999892728053 0
9 1 1 1 1 -32.00023227451194 -284.0839160504769 0
10 1 1 1 1 -449.9906087491737 213.7559169694018 0
11 1 1 1 1 492.1763047804014 -281.4491218085913 0
12 1 1 1 1 404.8050048962303 66.59972187322448 0
13 1 1 1 1 -266.0086891660236 298.6422604535356 0
14 1 1 1 1 443.9760299490223 -52.0493019820512 0
15 1 1 1 1 449.8565595456652 -265.8990334820816 0
16 1 1 1 1 -224.4048064126183 -272.8105346504959 0
17 1 1 1 1 453.5638809818304 -113.8723418349072 0
18 1 1 1 1 -435.6929983918997 210.4919248360151 0
19 1 1 1 1 -386.4200357167833 -134.6205463224796 0
20 1 1 1 1 -280.4069618838733 5.117926939062857 0
21 1 1 1 1 -61.20470850562059 159.7252185760163 0
22 1 1 1 1 -348.5635474198715 -298.7219460046372 0
23 1 1 1 1 -249.3687899468065 -56.38459759959466 0
24 1 1 1 1 -282.9597527248232 108.9630074236064 0
25 1 1 1 1 428.2399571441246 42.2509795459352 0
26 1 1 1 1 -33.3676481687987 -238.5707661340167 0
27 1 1 1 1 195.4865932937348 299.8469132111098 0
28 1 1 1 1 -336.9166535082248 -51.68136173310925 0
29 1 1 1 1 405.4841780692376 -24.74986372689215 0
30 1 1 1 1 -386.4058496336779 -22.29771660873711 0
31 1 1 1 1 -230.3992559885147 214.3382173956383 0
32 1 1 1 1 -433.1925764647377 129.2121714779913 0
33 1 1 1 1 -310.572775657366 -240.4246210034455 0
34 1 1 1 1 392.2584617606862 176.4041819118431 0
35 1 1 1 1 -10.10501044136344 -71.16685369761018 0
36 1 1 1 1 -26.57564533886111 64.74024408380726 0
37 1 1 1 1 -200.9795861243631 -43.15421055206375 0
38 1 1 1 1 263.5110487315079 -81.94143747674627 0
39 1 1 1 1 -10.10823454427581 19.78087073787629 0
40 1 1 1 1 -405.9007510045605 56.26265065949551 0
41 1 1 1 1 -301.9377909257614 269.1574130235217 0
42 1 1 1 1 -262.9640225764166 283.7181533742548 0
43 1 1 1 1 -172.5097889022629 177.5960412063271 0
44 1 1 1 1 26.77503154574908 -79.51194229578312 0
45 1 1 1 1 -41.99986036834909 -134.2902835561993 0
46 1 1 1 1 -11.96225416627343 221.9372353698822 0
47 1 1 1 1 -377.2555166524098 -195.1018413918506 0
48 1 1 1 1 -189.9399447220075 -27.66772776807827 0
49 1 1 1 1 -451.1190187971524 34.38877165043959 0
50 1 1 1 1 -227.7677535243599 -9.267929917315984 0
51 1 1 1 1 121.4239400698667 -31.08723220616642 0
52 1 1 1 1 -4.516701707675122 204.1563816001262 0
53 1 1 1 1 -124.7383609436046 212.7632806132726 0
54 1 1 1 1 -205.3606195990006 -1.40398289450585 0
55 1 1 1 1 401.8990455837817 45.68478882889394 0
56 1 1 1 1 482.9307322047872 -42.20660530567173 0
57 1 1 1 1 -70.82024186476382 -113.8914218708622 0
58 1 1 1 1 -404.5181592245916 273.189770319264 0
59 1 1 1 1 274.2824785408184 256.5710675095357 0
60 1 1 1 1 -70.54745079743071 -212.2038806750015 0
61 1 1 1 1 490.1587217552943 63.32030333752325 0
62 1 1 1 1 242.2818662173879 243.0431917869072 0
63 1 1 1 1 -111.7695664280766 -168.3149409595016 0
64 1 1 1 1 -371.3456219021247 -245.6359140746787 0
65 1 1 1 1 -379.6757866508429 -156.3145191132667 0
66 1 1 1 1 27.43191233037792 13.65253640381386 0
67 1 1 1 1 342.6058411073852 -137.2221277782023 0
68 1 1 1 1 180.5373378434897 -86.01035416429096 0
69 1 1 1 1 277.7475281356433 27.61563760016353 0
70 1 1 1 1 -381.4593413678334 -257.0549534401762 0
71 1 1 1 1 320.0947078714181 -7.115096347880262 0
72 1 1 1 1 -345.9694641393652 300.571724994457 0
73 1 1 1 1 -293.0155564720859 -193.8688684768247 0
74 1 1 1 1 -95.66364148484978 182.438393547517 0
75 1 1 1 1 458.0571282871291 -180.7400660372963 0
76 1 1 1 1 -185.9296850774067 53.35539409360239 0
77 1 1 1 1 -419.6101741942206 -211.5723721611936 0
78 1 1 1 1 -438.9386124951683 -163.7924339582424 0
79 1 1 1 1 -403.7635568373426 -150.4706368368508 0
80 1 1 1 1 261.8574634578552 117.3981990171725 0
81 1 1 1 1 150.6769742722145 -60.59932153141445 0
82 1 1 1 1 -114.3598282066877 -241.8887912797198 0
83 1 1 1 1 319.3883024363619 -39.50785466368597 0
84 1 1 1 1 119.7032180436899 -253.3446867838262 0
85 1 1 1 1 -66.08371639908459 133.359056812787 0
86 1 1 1 1 185.2747542494083 242.6005893352084 0
87 1 1 1 1 340.0431806364865 -153.8942947538948 0
88 1 1 1 1 -232.82143197901 -220.7576218356922 0
89 1 1 1 1 -415.2990953748176 -289.0987519999666 0
90 1 1 1 1 288.0248455822244 170.0112044813192 0
91 1 1 1 1 268.177174200073 133.3820815762735 0
92 1 1 1 1 423.6940629824695 266.4110964270336 0
93 1 1 1 1 -448.8427708401974 246.3504929347566 0
94 1 1 1 1 -85.88397706204626 -263.9243306368074 0
95 1 1 1 1 263.9819793922578 94.74255061891719 0
96 1 1 1 1 213.8460525336951 26.37059159571192 0
97 1 1 1 1 442.6760513513219 234.6066003033565 0
98 1 1 1 1 -129.1809135373838 -51.26453844571722 0
99 1 1 1 1 -224.8581761423021 -59.52000030181282 0
100 1 1 1 1 -210.3902681421142 44.17315031006288 0
101 1 1 1 1 -244.875467949765 294.2384990899947 0
102 1 1 1 1 -115.2650580000741 10.58621206070959 0
103 1 1 1 1 -247.217305874841 -245.6285620519472 0
104 1 1 1 1 42.20140144492176 -222.9220515523265 0
105 1 1 1 1 210.1332231213636 -182.785142872695 0
106 1 1 1 1 209.179144741992 -41.18790212543403 0
107 1 1 1 1 343.582392027887 25.55609613634287 0
108 1 1 1 1 193.7503540580215 53.06813983985823 0
109 1 1 1 1 257.8983884842755 -99.99293609405063 0
110 1 1 1 1 -382.9128675008137 216.9677592568709 0
111 1 1 1 1 -136.8079762134688 5.63106057453034 0
112 1 1 1 1 -237.8409256690756 138.5515578180658 0
113 1 1 1 1 -336.5786853396963 98.74696405081407 0
114 1 1 1 1 459.6896365901219 15.17271479366557 0
115 1 1 1 1 489.0603874664116 -222.3721366813011 0
116 1 1 1 1 443.2362582786325 273.7326073166115 0
117 1 1 1 1 362.2294052387788 41.58747911712832 0
118 1 1 1 1 342.1820798812542 206.8745889970801 0
119 1 1 1 1 -472.9098298414517 -94.95008824421738 0
120 1 1 1 1 -82.99345342875954 120.960501566562 0
121 1 1 1 1 138.8337590358156 19.93062462101437 0
122 1 1 1 1 -395.4048905315988 -243.1294330943334 0
123 1 1 1 1 -275.673793088895 74.55018610251497 0
124 1 1 1 1 -407.4385656006435 -271.2217055077861 0
125 1 1 1 1 -47.32098379615218 46.55933841064861 0
126 1 1 1 1 -191.7779401425502 138.3322849850193 0
127 1 1 1 1 -261.5555227459843 -264.8801084330435 0
128 1 1 1 1 103.3111799789175 170.4122381273392 0
129 1 1 1 1 -147.7371785925639 230.4379040766817 0
130 1 1 1 1 -91.03877695296586 71.34419313049187 0
131 1 1 1 1 -337.9505532068685 158.4763084704948 0
132 1 1 1 1 -331.6488100355574 230.7260000596401 0
133 1 1 1 1 -88.10258923213137 -120.0369833784834 0
134 1 1 1 1 -416.2064017326878 68.00035130972265 0
135 1 1 1 1 -63.01228225677439 296.5150698556671 0
136 1 1 1 1 208.9037792180707 272.8049189193681 0
137 1 1 1 1 -236.0871023825306 234.7336917805151 0
138 1 1 1 1 -169.8128882534317 260.8481574028143 0
139 1 1 1 1 -475.3495387648086 300.0340408804127 0
140 1 1 1 1 -49.08120615068501 283.5679863951512 0
141 1 1 1 1 -424.5863347546497 34.87242900085423 0
142 1 1 1 1 -428.0221923939178 -188.0714717839016 0
143 1 1 1 1 -223.3441067073444 -137.5401191325216 0
144 1 1 1 1 86.02422810731378 -212.3122414937145 0
145 1 1 1 1 118.0863289156747 90.27328505299084 0
146 1 1 1 1 -217.8488220048747 -24.58215709695787 0
147 1 1 1 1 -420.5003111395071 241.8871349009429 0
148 1 1 1 1 -502.6473303240599 299.3139251786223 0
149 1 1 1 1 347.7277116221288 165.9590515494241 0
150 1 1 1 1 66.15787430214925 124.3668023384821 0
151 1 1 1 1 -35.96937491428813 113.3404033260566 0
152 1 1 1 1 -241.6650000286947 -271.276807409386 0
153 1 1 1 1 -291.0433987132341 238.4231863150804 0
154 1 1 1 1 239.0211723275562 -87.31710439482208 0
155 1 1 1 1 -366.6150931457929 -57.99713024576037 0
156 1 1 1 1 329.3460973649263 101.8783854832474 0
157 1 1 1 1 67.13938372896037 -22.40881978318706 0
158 1 1 1 1 202.8023476140352 253.5350993677772 0
159 1 1 1 1 -400.7539782027969 -91.8521279488085 0
160 1 1 1 1 329.5866951075216 183.7849246658554 0
161 1 1 1 1 -0.1386047948175701 188.6757466394799 0
162 1 1 1 1 -367.053953820832 -149.6685385929051 0
163 1 1 1 1 -80.16089471471926 199.5303527006512 0
164 1 1 1 1 248.1191107872874 -114.2191344744483 0
165 1 1 1 1 -236.9649008620872 276.5782490573589 0
166 1 1 1 1 226.2717727523604 -184.9515308410606 0
167 1 1 1 1 401.5644696316706 -88.14647866924035 0
168 1 1 1 1 46.43495089509244 300.5596196030573 0
169 1 1 1 1 243.5978730237931 88.9889442123926 0
170 1 1 1 1 437.0708544533276 133.0851975584953 0
171 1 1 1 1 463.8319093041948 -294.1830604312747 0
172 1 1 1 1 9.72898877683059 224.275629557329 0
173 1 1 1 1 -166.3094641296182 146.537716709872 0
174 1 1 1 1 299.2851445981795 109.3495517825854 0
175 1 1 1 1 428.4308699905498 -53.10726736237123 0
176 1 1 1 1 479.1036971490767 104.6543795282641 0
177 1 1 1 1 -483.8700001552057 43.65064631403796 0
178 1 1 1 1 48.26570798648366 -172.5959501903979 0
179 1 1 1 1 -116.999087690203 233.2957396847986 0
180 1 1 1 1 141.5447316478656 51.67072031177333 0
181 1 1 1 1 453.5868706668115 -284.5283571341087 0
182 1 1 1 1 -167.8764983370418 -111.2989903347104 0
183 1 1 1 1 443.7385250788136 46.74062164472571 0
184 1 1 1 1 -400.6045219441188 -256.6927502724795 0
185 1 1 1 1 -35.93385658735878 -167.7506183849674 0
186 1 1 1 1 21.69521146594304 231.2468922224117 0
187 1 1 1 1 -98.85306482568159 292.3452135289379 0
188 1 1 1 1 187.5814381650359 -49.39004083507737 0
189 1 1 1 1 358.863786480251 -248.2049791165632 0
190 1 1 1 1 -340.3898804772277 -249.2703307422433 0
191 1 1 1 1 -392.7086611856117 69.8917919084537 0
192 1 1 1 1 308.0964546845231 -284.0250643464643 0
193 1 1 1 1 -319.0299505945793 148.1111807875443 0
194 1 1 1 1 -390.5172707497394 290.7822494321009 0
195 1 1 1 1 360.2562949572224 -186.9395828635426 0
196 1 1 1 1 13.77110285749576 69.21872746905964 0
197 1 1 1 1 70.67649966991685 -298.7272177890679 0
198 1 1 1 1 -317.5366060775622 -283.1550722612898 0
199 1 1 1 1 -295.6687367003109 -270.8973601457467 0
200 1 1 1 1 -46.26992524936538 -110.689705099563 0
201 1 1 1 1 434.1275520365549 -175.8999456322615 0
202 1 1 1 1 -327.7880491026484 -136.0652630111471 0
203 1 1 1 1 -351.2236157714126 127.3683475844792 0
204 1 1 1 1 -310.2219004114999 -201.3505172118701 0
205 1 1 1 1 -250.1910588146823 246.2675816624053 0
206 1 1 1 1 113.8271812689236 -145.0985876502974 0
207 1 1 1 1 -60.61026634452222 204.7067638668914 0
208 1 1 1 1 -496.4771638524688 -280.9700215540971 0
209 1 1 1 1 -272.2940265048685 -139.2984761339565 0
210 1 1 1 1 34.11426292858289 -242.1552562867761 0
211 1 1 1 1 -393.5638682803039 -68.08980751355236 0
212 1 1 1 1 260.122830152513 54.82404255541314 0
213 1 1 1 1 450.2656248290746 97.94006382970298 0
214 1 1 1 1 -152.0680701812027 -210.9438027130504 0
215 1 1 1 1 327.4917095476349 -59.1198390595716 0
216 1 1 1 1 179.6390819874905 -228.6810678600571 0
217 1 1 1 1 38.24576548498179 57.02440752944509 0
218 1 1 1 1 48.02075201921135 -15.26566193743881 0
219 1 1 1 1 -22.58979246961128 133.9165589064313 0
220 1 1 1 1 -361.5608732230494 273.1416539929268 0
221 1 1 1 1 -79.26656985080247 216.9410391500541 0
222 1 1 1 1 191.229367300498 160.2207243034676 0
223 1 1 1 1 -383.7276911716173 149.7188821104502 0
224 1 1 1 1 207.2998970189163 -70.97352706949546 0
225 1 1 1 1 334.5871679443375 -287.0452043633449 0
226 1 1 1 1 456.554645404986 199.9408634034786 0
227 1 1 1 1 382.9072662981705 -164.8850994974915 0
228 1 1 1 1 111.4090788629915 -111.3579294005422 0
229 1 1 1 1 -376.0313091210702 -46.08912055779711 0
230 1 1 1 1 -9.51743469195519 66.7335612574024 0
231 1 1 1 1 116.0590584120579 212.7919656540345 0
232 1 1 1 1 18.52595323033053 -207.2907905653187 0
233 1 1 1 1 267.9959785665398 207.7997398054503 0
234 1 1 1 1 -19.2294112211022 -28.16663332116857 0
235 1 1 1 1 -135.9240334270887 238.5383488440369 0
236 1 1 1 1 417.1703964828682 -118.8473688788812 0
237 1 1 1 1 16.41401339265699 -67.53646936488859 0
238 1 1 1 1 213.970845861935 234.9952280306083 0
239 1 1 1 1 231.9907250750244 -106.7782319053171 0
240 1 1 1 1 325.3783694187321 -224.9908199166877 0
241 1 1 1 1 408.9623441114474 -286.7507010169195 0
242 1 1 1 1 -386.9828613333019 -83.40414176041591 0
243 1 1 1 1 -59.94999202327954 -288.1757076841772 0
244 1 1 1 1 417.4434390197881 -138.8892383453819 0
245 1 1 1 1 196.8583996646482 -30.55935130896497 0
246 1 1 1 1 323.9851381469197 289.0069152755407 0
247 1 1 1 1 -296.5736110492759 -247.8357099983729 0
248 1 1 1 1 -214.5579581118552 -249.273332493207 0
249 1 1 1 1 -453.2875885777995 -145.239648177694 0
250 1 1 1 1 1.845561516147268 84.16862822419431 0
251 1 1 1 1 241.5931333806053 4.072735535553528 0
252 1 1 1 1 334.7452022873113 -181.802827898428 0
253 1 1 1 1 359.5615661003803 203.7261167004247 0
254 1 1 1 1 -221.8532967152706 -208.3558166992636 0
255 1 1 1 1 -296.5630967839866 -12.47017720254996 0
256 1 1 1 1 -105.7675879313657 -14.24988435054509 0
257 1 1 1 1 -266.9455708230366 -194.6441124013764 0
258 1 1 1 1 -379.9946403450442 108.7165127392077 0
259 1 1 1 1 -454.3193072124515 -293.8059785273375 0
260 1 1 1 1 197.7949996273892 281.7798794287133 0
261 1 1 1 1 -75.0916058837545 48.31744939511078 0
262 1 1 1 1 411.1035938518661 251.4408483212099 0
263 1 1 1 1 -3.377213106566671 125.8641265688429 0
264 1 1 1 1 -61.80182061399001 -84.78484563218542 0
265 1 1 1 1 477.5238006455951 -267.1793292813882 0
266 1 1 1 1 -24.76477646435076 8.123863723842186 0
267 1 1 1 1 272.4742079726707 -110.9674737115614 0
268 1 1 1 1 151.2440079071452 -175.4117318109686 0
269 1 1 1 1 12.50622838507209 152.552021547103 0
270 1 1 1 1 338.0415028742376 268.2720567282937 0
271 1 1 1 1 -78.32369529413253 103.1049438275083 0
272 1 1 1 1 -424.9053107000314 194.8446887455694 0
273 1 1 1 1 390.5649236134178 -250.8310688977237 0
274 1 1 1 1 409.165480223847 -185.6814916030137 0
275 1 1 1 1 55.31852175389175 186.9260023316152 0
276 1 1 1 1 -454.6775476574618 -214.8839076584746 0
277 1 1 1 1 79.72583657600723 -48.55806487421069 0
278 1 1 1 1 -290.7298766285692 127.9748077545712 0
279 1 1 1 1 322.9144666060354 274.0771858349014 0
280 1 1 1 1 256.2203195845807 176.0873927157899 0
281 1 1 1 1 -80.00760868930404 250.7995185251653 0
282 1 1 1 1 -195.7455347763244 -277.06869442446 0
283 1 1 1 1 350.7654215167007 -71.70793621194561 0
284 1 1 1 1 32.40884586191699 172.7860757186036 0
285 1 1 1 1 475.7482759186285 -84.63373325675973 0
286 1 1 1 1 -416.9190986916147 157.7946597083879 0
287 1 1 1 1 -438.1405799371755 108.2581238169613 0
288 1 1 1 1 -486.6774288298124 81.61639438027859 0
289 1 1 1 1 218.601796308779 220.3597439768664 0
290 1 1 1 1 -356.2357341936485 112.7684747288901 0
291 1 1 1 1 422.1913244595555 -247.2202141436697 0
292 1 1 1 1 -332.1872992839203 65.8450880529717 0
293 1 1 1 1 -471.5648466657063 -270.8194059254332 0
294 1 1 1 1 -350.0017687650788 -226.3921213187636 0
295 1 1 1 1 -296.5474756260864 9.550420155789169 0
296 1 1 1 1 276.7282042614336 -225.5554564046135 0
297 1 1 1 1 61.53380988712385 -207.4355446008101 0
298 1 1 1 1 -64.13625828573917 177.4730579564936 0
299 1 1 1 1 -424.86326061861 139.910242743693 0
300 1 1 1 1 -229.2962083707538 -34.35887189465576 0
301 1 1 1 1 -437.2468925810001 23.12592512168144 0
302 1 1 1 1 -305.499630175128 113.8320874354427 0
303 1 1 1 1 409.3683496808931 144.8953643964472 0
304 1 1 1 1 -3.57214692281924 -182.3300776528525 0
305 1 1 1 1 231.3119804323422 -125.0992316881778 0
306 1 1 1 1 284.8559658947612 121.5654890694149 0
307 1 1 1 1 -441.4714095160489 -228.5052076855397 0
308 1 1 1 1 30.4952636631275 -33.600871485905 0
309 1 1 1 1 165.089439365345 298.3990853161331 0
310 1 1 1 1 -6.655041508268232 -46.96014408474417 0
311 1 1 1 1 -190.2527676675049 -210.6362574971847 0
312 1 1 1 1 -193.6831372775118 9.109272996776229 0
313 1 1 1 1 -268.4690047240815 236.1735565375871 0
314 1 1 1 1 -470.0692400439688 20.18213753742054 0
315 1 1 1 1 -347.80059480979 61.18992797473696 0
316 1 1 1 1 -99.68341817327689 -77.28069464945415 0
317 1 1 1 1 -186.8083224406991 -225.8298446360814 0
318 1 1 1 1 -35.06347077333251 -27.75737017150129 0
319 1 1 1 1 54.78546788552164 249.4706289601445 0
320 1 1 1 1 434.8974649420294 91.11056688851566 0
321 1 1 1 1 221.5521483687973 252.4532576286148 0
322 1 1 1 1 197.4332391169104 -172.0237628069951 0
323 1 1 1 1 -236.6436949427461 -74.07834826739995 0
324 1 1 1 1 269.2612243917743 5.409043463396955 0
325 1 1 1 1 497.7613755062455 -160.3562475764744 0
326 1 1 1 1 -83.91243708201587 288.6048564885722 0
327 1 1 1 1 -88.10611955453229 -297.0007621668962 0
328 1 1 1 1 -366.1472120505467 -88.39751500551874 0
329 1 1 1 1 -36.84675832122463 274.48098915832 0
330 1 1 1 1 144.9122939243634 253.3877300599237 0
331 1 1 1 1 379.1704165570788 -217.4981964526502 0
332 1 1 1 1 203.2625425826933 -240.1362525613871 0
333 1 1 1 1 263.2693637734361 -219.7338002155693 0
334 1 1 1 1 343.5888682441893 226.1139878533904 0
335 1 1 1 1 294.860385478617 221.2583664445027 0
336 1 1 1 1 382.7259506322475 21.54538587712997 0
337 1 1 1 1 -369.8686730036083 132.2242795272496 0
338 1 1 1 1 188.8976472124557 104.739784911124 0
339 1 1 1 1 -302.4589403564357 68.53839073890266 0
340 1 1 1 1 -195.8147054689399 235.6888434912578 0
341 1 1 1 1 102.4881341839596 220.6585337687521 0
342 1 1 1 1 -484.570523640355 108.4393949433466 0
343 1 1 1 1 270.9949565154556 168.638632863726 0
344 1 1 1 1 459.6219891101379 -54.68084466891109 0
345 1 1 1 1 114.1412459666708 -299.6636462245104 0
346 1 1 1 1 -27.73950947203934 -102.763565109803 0
347 1 1 1 1 -230.4929385810345 22.28385367629971 0
348 1 1 1 1 -469.4143748695138 -223.9483909892788 0
349 1 1 1 1 -86.38368629806706 160.8028352943353 0
350 1 1 1 1 -252.0618241016863 -110.5865249618329 0
351 1 1 1 1 -431.7534627453172 -110.6205866962636 0
352 1 1 1 1 72.4357990345641 230.1106717640993 0
353 1 1 1 1 -177.7955816608519 -170.770002028863 0
354 1 1 1 1 -86.28476153361956 -235.394699193924 0
355 1 1 1 1 -14.97956640801734 -162.3029654809878 0
356 1 1 1 1 160.229821894714 -268.4483481588694 0
357 1 1 1 1 -180.6111179083756 -83.2740674194616 0
358 1 1 1 1 196.6361585831299 -8.282010765459058 0
359 1 1 1 1 485.3273545870216 -205.5981860577396 0
360 1 1 1 1 -268.0322481029643 86.18896543930657 0
361 1 1 1 1 -50.21114713647114 -163.3613675268974 0
362 1 1 1 1 -206.7722913019698 63.18091274355001 0
363 1 1 1 1 257.5517381957929 -14.35314839576193 0
364 1 1 1 1 -62.77592025725138 -54.48303084178247 0
365 1 1 1 1 1.475036791830496 256.5382080740644 0
366 1 1 1 1 355.4442001307655 -10.40411765797951 0
367 1 1 1 1 -345.2109132031563 -108.5060047260124 0
368 1 1 1 1 -49.79061621584728 62.29178475868879 0
369 1 1 1 1 18.64655093681014 -51.5888412671676 0
370 1 1 1 1 -328.2461341618071 168.7082154118924 0
371 1 1 1 1 33.8943620429158 32.89439661480175 0
372 1 1 1 1 285.2739136301175 248.4538607060297 0
373 1 1 1 1 436.3856794092534 -73.63833098355919 0
374 1 1 1 1 -369.6488043482597 20.91214858702504 0
375 1 1 1 1 295.7328330549949 25.01916145089713 0
376 1 1 1 1 -405.4227240539478 -107.7267387743426 0
377 1 1 1 1 398.8147388437853 -216.1556490225638 0
378 1 1 1 1 -152.2940213452323 118.0078885494705 0
379 1 1 1 1 464.5269590527588 273.978398393863 0
380 1 1 1 1 244.8638159376229 120.8472673625742 0
381 1 1 1 1 186.8770912868886 -245.9279106802 0
382 1 1 1 1 -336.3021598515877 -72.27437155715032 0
383 1 1 1 1 316.4660766701289 -210.3788087854761 0
384 1 1 1 1 -393.1230206903689 4.923144901792437 0
385 1 1 1 1 -478.9861331547518 145.1305057638722 0
386 1 1 1 1 199.7743152918147 -205.8056400165302 0
387 1 1 1 1 -422.9129991133187 96.11147437534503 0
388 1 1 1 1 392.2284207847972 150.2294015235447 0
389 1 1 1 1 333.6705241168393 -85.99578837723016 0
390 1 1 1 1 -226.7676167926517 -167.0342323503238 0
391 1 1 1 1 215.178141596316 56.57642016279634 0
392 1 1 1 1 -491.860306839291 198.246852916572 0
393 1 1 1 1 34.73100078493297 274.7373917182594 0
394 1 1 1 1 308.2516167279891 70.22135660889146 0
395 1 1 1 1 421.171797185634 -165.037696813042 0
396 1 1 1 1 -339.0118823110315 -210.3887505660959 0
397 1 1 1 1 440.0848566245276 -282.9051107238881 0
398 1 1 1 1 457.8032707683715 -251.7856624239782 0
399 1 1 1 1 -51.42207155657965 -124.10436957836 0
400 1 1 1 1 -409.8076817976764 83.9712492119512 0
401 1 1 1 1 219.4456481614618 124.7734471049393 0
402 1 1 1 1 263.4380261067547 236.0747300514707 0
403 1 1 1 1 -343.3225729722368 -87.60944049204989 0
404 1 1 1 1 -309.4149398748725 -155.8520820301706 0
405 1 1 1 1 5.209195945172075 -0.9900938666453668 0
406 1 1 1 1 41.22302730604918 -48.68544167961821 0
407 1 1 1 1 144.9436977372992 -286.8623805343157 0
408 1 1 1 1 321.013805430786 -298.7941065835429 0
409 1 1 1 1 -146.1290606538523 259.9149733186678 0
410 1 1 1 1 311.6661818423531 -104.790257366394 0
411 1 1 1 1 -35.66322883123275 220.5003973067842 0
412 1 1 1 1 351.343230126185 -34.02995889103369 0
413 1 1 1 1 -297.5616347636891 -169.7733713404397 0
414 1 1 1 1 231.5174449571074 167.7051486216286 0
415 1 1 1 1 -81.51607931253221 144.1054267801124 0
416 1 1 1 1 87.76386807732405 -270.1217335512183 0
417 1 1 1 1 411.8396730657278 221.5151109953343 0
418 1 1 1 1 -126.2441547638056 -117.5385404541948 0
419 1 1 1 1 215.4226195855352 150.1413952374115 0
420 1 1 1 1 -289.078426067378 26.65255850483698 0
421 1 1 1 1 -22.38190083010654 -249.5584572259583 0
422 1 1 1 1 -282.5015408460649 -65.20441247475597 0
423 1 1 1 1 -244.9724931504201 -32.25868894572025 0
424 1 1 1 1 -456.1094192568264 -278.0790411737874 0
425 1 1 1 1 -132.2233608340233 276.9474969236099 0
426 1 1 1 1 461.4759955845423 242.3542305043765 0
427 1 1 1 1 -101.4420258828686 40.30466404207063 0
428 1 1 1 1 -468.5581644062173 -196.6866286674526 0
429 1 1 1 1 -74.47757431461837 -147.2301765313761 0
430 1 1 1 1 -353.7101144355027 -31.58034689434288 0
431 1 1 1 1 198.6837813631719 117.290555655298 0
432 1 1 1 1 -96.99466285413284 234.8149572149233 0
433 1 1 1 1 -43.93736213457586 -81.1187459579433 0
434 1 1 1 1 -500.3342562396281 -209.4316628049482 0
435 1 1 1 1 74.42128951111498 -160.7986390759379 0
436 1 1 1 1 -173.4556001354622 -14.87545706110326 0
437 1 1 1 1 362.7672172353928 58.52098760000872 0
438 1 1 1 1 224.9253063139188 300.9875271228063 0
439 1 1 1 1 435.272830801573 157.4270938557826 0
440 1 1 1 1 -304.0280934391818 193.9596859113431 0
441 1 1 1 1 271.3491350607941 286.4800339315984 0
442 1 1 1 1 43.30124233813028 -288.1316157337139 0
443 1 1 1 1 -490.1635818980662 -15.78926070629809 0
444 1 1 1 1 485.9934934808363 257.9661193249137 0
445 1 1 1 1 502.7966488801839 283.1396944429715 0
446 1 1 1 1 232.104633148857 228.6655751937734 0
447 1 1 1 1 -46.77439073646163 -94.78691676870996 0
448 1 1 1 1 -288.0261507203787 -208.0514349591447 0
449 1 1 1 1 -202.0599248114208 -87.89824599327407 0
450 1 1 1 1 -469.1692224922176 216.9603166963886 0
451 1 1 1 1 63.59239734281903 215.0410185693197 0
452 1 1 1 1 120.0665162334087 -219.5978521041199 0
453 1 1 1 1 -445.0641990146261 49.67957618286699 0
454 1 1 1 1 132.9810537176023 -65.39172702843867 0
455 1 1 1 1 -370.1863608808995 -10.60015724753889 0
456 1 1 1 1 -407.780661552643 211.9755023282923 0
457 1 1 1 1 -363.6131451446613 227.4543380060316 0
458 1 1 1 1 469.4016695258518 -215.5674970527195 0
459 1 1 1 1 270.8576752170394 -171.5735207318595 0
460 1 1 1 1 13.91218750778484 -174.2881218514084 0
461 1 1 1 1 -205.8232467873931 284.8858325774857 0
462 1 1 1 1 290.2803845334263 278.1124909065262 0
463 1 1 1 1 454.5143251173103 -138.616578901839 0
464 1 1 1 1 466.1738858325653 33.21961193203998 0
465 1 1 1 1 156.3444530646015 -233.4643072367271 0
466 1 1 1 1 -7.940318833740014 242.5897037290812 0
467 1 1 1 1 -448.5709683591209 118.263962774643 0
468 1 1 1 1 319.8875533571979 251.4233064243122 0
469 1 1 1 1 209.4406126401203 -261.2199814375513 0
470 1 1 1 1 335.2875804743849 74.19388360193497 0
471 1 1 1 1 30.67778533502179 134.1414306930558 0
472 1 1 1 1 250.4319561209386 -68.78460466925168 0
473 1 1 1 1 9.614568268541881 17.98718000017144 0
474 1 1 1 1 -321.5498730827974 25.01085562071191 0
475 1 1 1 1 -476.5727495965303 96.43751591283898 0
476 1 1 1 1 406.7091534052694 -250.9736963096123 0
477 1 1 1 1 -130.1285182142489 97.51575215128358 0
478 1 1 1 1 190.7726630756058 -286.5573013329098 0
479 1 1 1 1 -226.9379375844292 156.1839459395326 0
480 1 1 1 1 204.8236556364187 -281.8270054385491 0
481 1 1 1 1 306.8673743311913 -46.95990661217229 0
482 1 1 1 1 100.8005255361159 -155.9999389949032 0
483 1 1 1 1 -238.6589557607065 -119.2402417175794 0
484 1 1 1 1 -344.260074976518 205.6429309697501 0
485 1 1 1 1 339.8099048774888 -24.03082692261258 0
486 1 1 1 1 107.5705875832425 290.4025324565961 0
487 1 1 1 1 -119.5424692639212 -194.5165455474309 0
488 1 1 1 1 106.9635685205928 117.7809098602768 0
489 1 1 1 1 151.308622544043 271.741799327249 0
490 1 1 1 1 79.55122173686719 -235.7800518770068 0
491 1 1 1 1 -18.87070773295377 -146.8462545862072 0
492 1 1 1 1 494.7338357262516 -2.843211927948664 0
493 1 1 1 1 140.0266555704215 -235.1987678064879 0
494 1 1 1 1 -212.5773103540391 267.4884985745998 0
495 1 1 1 1 154.6987158602477 -26.03861047172614 0
496 1 1 1 1 -12.34935551292923 49.6101289527407 0
497 1 1 1 1 -226.4937285972097 -151.3285657050618 0
498 1 1 1 1 119.7015939701491 -184.6860298443094 0
499 1 1 1 1 101.7652839789783 69.90893974513882 0
500 1 1 1 1 -490.3231558904174 -301.5855571550265 0
501 1 1 1 1 123.5966366590251 37.58633399362068 0
502 1 1 1 1 86.51160277704975 26.08974924518013 0
503 1 1 1 1 306.1432321354574 12.95160673070792 0
504 1 1 1 1 -491.9572222188414 -162.3551744869248 0
505 1 1 1 1 -194.8306854074061 109.8745848308592 0
506 1 1 1 1 430.8725770661736 175.1615724132277 0
507 1 1 1 1 217.5525864205362 -204.1996581741851 0
508 1 1 1 1 -461.4841382761044 -120.6985541788935 0
509 1 1 1 1 -178.499983758838 292.939343947013 0
510 1 1 1 1 480.467164131646 126.6753510921443 0
511 1 1 1 1 117.4283303482222 -66.781104982853 0
512 1 1 1 1 486.8091271577973 18.65198608130996 0
513 1 1 1 1 261.4395146941993 -156.8498801538877 0
514 1 1 1 1 -68.42858273126184 -182.1831721923067 0
515 1 1 1 1 -320.8497631138167 -256.1356395209068 0
516 1 1 1 1 -154.8767571029523 -258.9067716636794 0
517 1 1 1 1 400.2190328961794 -48.02744661902175 0
518 1 1 1 1 195.2638242613054 77.98537946350004 0
519 1 1 1 1 399.9407321313425 133.9336783254464 0
520 1 1 1 1 190.1986327972917 204.6228360241016 0
521 1 1 1 1 498.8523677600614 193.9159854333173 0
522 1 1 1 1 -134.9625591143144 -216.7201989895712 0
523 1 1 1 1 -273.4941092225357 -24.73672404384193 0
524 1 1 1 1 424.6002526081053 16.1238063825315 0
525 1 1 1 1 -267.0070628516762 -46.95316188926603 0
526 1 1 1 1 -50.10277630181047 -38.5625089672305 0
527 1 1 1 1 294.8003224452503 -91.71689223440886 0
528 1 1 1 1 -494.2656620384753 -120.2603793523204 0
529 1 1 1 1 95.85239090988253 -105.1274583767039 0
530 1 1 1 1 28.61063503048068 214.6740900231966 0
531 1 1 1 1 -173.6361357403945 121.1782090540106 0
532 1 1 1 1 38.21036760619342 81.06521275073892 0
533 1 1 1 1 -209.4312430338358 -132.7019203597344 0
534 1 1 1 1 372.4552147216913 211.2617371891909 0
535 1 1 1 1 174.0126394075237 -144.2031354081557 0
536 1 1 1 1 -360.5002171579429 250.2961409017291 0
537 1 1 1 1 -197.3106648913367 125.0444196859515 0
538 1 1 1 1 162.0821777218964 -282.734367718169 0
539 1 1 1 1 49.31083399172668 36.34616605275907 0
540 1 1 1 1 -205.0957746657805 99.15480151836295 0
541 1 1 1 1 42.14898604461494 220.893260301333 0
542 1 1 1 1 266.504924580978 79.34355650830072 0
543 1 1 1 1 306.867656590873 154.4024902017796 0
544 1 1 1 1 -438.1430753968708 -40.90009953123691 0
545 1 1 1 1 294.253243081076 -22.32290498783882 0
546 1 1 1 1 319.1608347572509 -243.6636464901804 0
547 1 1 1 1 -84.39102973716749 -202.3842453654772 0
548 1 1 1 1 467.4138682066975 165.7213836851168 0
549 1 1 1 1 400.5814699425077 -117.2969811403958 0
550 1 1 1 1 -25.26218832771949 87.09800681825436 0
551 1 1 1 1 -338.6538641384985 -166.225340842322 0
552 1 1 1 1 358.7745933780114 237.5827430327716 0
553 1 1 1 1 146.2084958697107 -8.363463050525541 0
554 1 1 1 1 47.01798776880988 -91.31319964169957 0
555 1 1 1 1 -247.5462024211374 -203.7146946164759 0
556 1 1 1 1 9.986148628034913 -32.69416021248855 0
557 1 1 1 1 -463.5537501905247 69.83073722575361 0
558 1 1 1 1 223.249788923609 -17.0848574065629 0
559 1 1 1 1 -149.0104185762038 -21.42537068303908 0
560 1 1 1 1 -54.28694807910931 -212.853853772175 0
561 1 1 1 1 -179.1020509640628 -156.8807350145832 0
562 1 1 1 1 180.9427318077476 -109.7978699402554 0
563 1 1 1 1 -239.8618275433937 -298.2825061682186 0
564 1 1 1 1 -254.5936365380773 -8.628740048198296 0
565 1 1 1 1 -69.28357494653217 277.2752879544083 0
566 1 1 1 1 -117.4978001309277 -269.5860132425777 0
567 1 1 1 1 -122.0626109782557 -31.19365006783728 0
568 1 1 1 1 384.1632908930407 52.28934949302789 0
569 1 1 1 1 210.9123747875571 95.83627153032333 0
570 1 1 1 1 -288.5288486549392 196.0728097229494 0
571 1 1 1 1 57.35957216135028 233.4751616596649 0
572 1 1 1 1 119.0454646283528 -12.37972886139916 0
573 1 1 1 1 141.321391341462 210.6448198038448 0
574 1 1 1 1 -326.9348994100572 -89.19449353520645 0
575 1 1 1 1 355.9037381578492 -57.23965645252383 0
576 1 1 1 1 284.6248239818515 138.8977189773925 0
577 1 1 1 1 -115.7188259258828 167.1939929802329 0
578 1 1 1 1 -391.4775501163916 23.08006709900506 0
579 1 1 1 1 342.1908853407874 -241.5987866167338 0
580 1 1 1 1 398.8452284773815 -170.8249761972277 0
581 1 1 1 1 -332.8997616601543 -32.08418697716863 0
582 1 1 1 1 -169.2076878992242 -195.0933136768311 0
583 1 1 1 1 416.1288494187743 -223.2806977578814 0
584 1 1 1 1 -166.5633963495927 191.694950702191 0
585 1 1 1 1 98.38419244095066 277.6938935047804 0
586 1 1 1 1 -407.5202955524377 -172.6898267866699 0
587 1 1 1 1 -364.8552270908523 184.6000725558431 0
588 1 1 1 1 471.777008750693 209.2290256399703 0
589 1 1 1 1 352.1931195616043 143.3572123737635 0