

3827 atoms
9439 bonds
1 atom types
1 bond types
-480 480 xlo xhi
-288 288 ylo yhi
-32 32 zlo zhi

Atoms #bpm/sphere

1 1 1 1 1 -49.48501854849542 53.9324459153512 0
2 1 1 1 1 -224.4795991858056 24.14049133528783 0
3 1 1 1 1 475.2820999691589 -176.4555634069259 0
4 1 1 1 1 358.8726922993354 -272.221120724028 0
5 1 1 1 1 303.9306257077973 -242.1947281026924 0
6 1 1 1 1 453.2598458712496 263.4216521659505 0
7 1 1 1 1 84.21460811773773 193.5284427736531 0
8 1 1 1 1 110.9947714493555 245.8199677445922 0
9 1 1 1 1 304.1564351521424 253.3596041214881 0
10 1 1 1 1 288.9056229867739 -17.087071233247 0
11 1 1 1 1 -289.812272755247 253.3378807267507 0
12 1 1 1 1 -233.2374324364496 -98.8297824775467 0
13 1 1 1 1 -474.4034165728076 135.1319397793126 0
14 1 1 1 1 -251.1342798040703 30.06544188207602 0
15 1 1 1 1 -393.0311556139105 144.6972615780808 0
16 1 1 1 1 7.46034407439879 -31.38995427410902 0
17 1 1 1 1 -124.3539436238559 -226.422993313045 0
18 1 1 1 1 460.353282247317 -37.41396072056932 0
19 1 1 1 1 145.8016073130103 -95.21317823105883 0
20 1 1 1 1 -270.325026929951 29.41639952158863 0
21 1 1 1 1 -160.9108688778716 -13.82268589750345 0
22 1 1 1 1 -10.22148435508387 26.53533080222496 0
23 1 1 1 1 140.3857904546949 50.05785642138142 0
24 1 1 1 1 133.8968583058189 -227.9498166584353 0
25 1 1 1 1 -391.6104032364631 -163.458972832422 0
26 1 1 1 1 -187.8676269579831 -52.27877330019203 0
27 1 1 1 1 372.1722338838449 124.5517676329444 0
28 1 1 1 1 27.42740502555472 42.90009354625533 0
29 1 1 1 1 -72.81877301874397 -228.377157921727 0
30 1 1 1 1 -303.1588458875499 76.09089805531067 0
31 1 1 1 1 15.41367820746882 136.6803017700477 0
32 1 1 1 1 290.7968904951466 -87.42963906066535 0
33 1 1 1 1 127.4963060623589 182.5283669495214 0
34 1 1 1 1 208.382655176326 -279.2940152328659 0
35 1 1 1 1 162.1831806537327 106.3130248035106 0
36 1 1 1 1 155.771436030854 -249.0907182872063 0
37 1 1 1 1 33.90201221380278 156.4674653352271 0
38 1 1 1 1 -218.2206313990837 0.9832896763565486 0
39 1 1 1 1 386.3198893742947 146.2344632108377 0
40 1 1 1 1 -57.42511344527696 275.57181340766 0
41 1 1 1 1 -443.2242700361078 -152.3357637542975 0
42 1 1 1 1 325.1399589776081 -53.55986326868668 0
43 1 1 1 1 208.1508833534937 48.60110620370648 0
44 1 1 1 1 320.3618885174866 -71.63665898520867 0
45 1 1 1 1 311.7370850599433 149.9832341090882 0
46 1 1 1 1 124.4015577577075 196.3050586807751 0
47 1 1 1 1 -457.5478764595056 215.3878627457713 0
48 1 1 1 1 257.5369296963831 152.5086782899126 0
49 1 1 1 1 244.7803297062316 -138.173346200138 0
50 1 1 1 1 47.76706019459004 -137.5203842140917 0
51 1 1 1 1 -426.927187077975 52.56241735803553 0
52 1 1 1 1 143.9530605388347 -257.407694479106 0
53 1 1 1 1 -349.1843700329811 234.0090315870782 0
54 1 1 1 1 -315.3219016427977 269.5206504940534 0
55 1 1 1 1 186.4141874680731 234.4750136496689 0
56 1 1 1 1 -25.80836246961178 281.8892847453532 0
57 1 1 1 1 -316.8045661101896 144.1001702787757 0
58 1 1 1 1 140.1648812506995 123.4946721535414 0
59 1 1 1 1 -379.4018991459925 -134.0673162072683 0
60 1 1 1 1 407.3498964901366 -2.375777413119295 0
61 1 1 1 1 -55.41538230283749 -143.311002824212 0
62 1 1 1 1 -208.6526263943428 -251.577449068553 0
63 1 1 1 1 -183.919212653911 282.6693567817292 0
64 1 1 1 1 424.6824457003529 -167.3466304671757 0
65 1 1 1 1 34.68276895587894 64.29727484675607 0
66 1 1 1 1 98.17571973585723 -184.831413043842 0
67 1 1 1 1 -44.84881962262523 91.81854117872166 0
68 1 1 1 1 86.94363038314953 156.2516464234594 0
69 1 1 1 1 -376.9422242706087 54.29064321136826 0
70 1 1 1 1 -291.3443816951244 -88.43578215037377 0
71 1 1 1 1 -85.14266086491085 120.9280857722371 0
72 1 1 1 1 -80.72712947466766 136.2661089064121 0
73 1 1 1 1 -38.57713421594372 -98.54061174368297 0
74 1 1 1 1 246.0555299516327 125.1115441319959 0
75 1 1 1 1 404.4693798979479 -175.4742774487534 0
76 1 1 1 1 -156.393901520176 97.52980836980913 0
77 1 1 1 1 -139.364838013281 -200.0022659002821 0
78 1 1 1 1 -309.9981905684027 197.676453835782 0
79 1 1 1 1 9.409640782292797 -103.5184554623647 0
80 1 1 1 1 -147.1240443843059 -34.87576951126104 0
81 1 1 1 1 -454.4354417395524 -210.7545512504041 0
82 1 1 1 1 98.49208330932845 216.0603580469564 0
83 1 1 1 1 190.5101835807408 251.4146301660857 0
84 1 1 1 1 -305.8964527620838 -33.67334411658038 0
85 1 1 1 1 -460.7886218457919 29.72491535502161 0
86 1 1 1 1 308.3437680969835 -198.6513671411542 0
87 1 1 1 1 340.1061715565106 218.5577202259055 0
88 1 1 1 1 294.6571626003304 226.5492798943815 0
89 1 1 1 1 33.24745089734961 180.0188462503085 0
90 1 1 1 1 -386.3209282192746 -227.2411115933212 0
91 1 1 1 1 368.1847975742645 90.58887992372763 0
92 1 1 1 1 -9.523583120816795 -256.8531052839836 0
93 1 1 1 1 -38.84737320642319 257.0507394995633 0
94 1 1 1 1 -244.0704761575695 257.5094785204432 0
95 1 1 1 1 -127.1939539575461 -63.83937377376017 0
96 1 1 1 1 327.5666347952403 -117.2622490491095 0
97 1 1 1 1 -448.2959533210141 233.3069203967947 0
98 1 1 1 1 -57.20877700894567 130.6113799408691 0
99 1 1 1 1 462.037616083044 -176.2545578668025 0
100 1 1 1 1 -319.9503671951275 -48.17909556638091 0
101 1 1 1 1 137.7937748774109 -153.0035847210667 0
102 1 1 1 1 323.2662276768252 33.99809796285234 0
103 1 1 1 1 -326.7558893300496 181.4678200177504 0
104 1 1 1 1 48.3218554149737 -40.83335368327141 0
105 1 1 1 1 -173.0284607396638 266.4600644859494 0
106 1 1 1 1 -99.39238780444981 -91.19994862276735 0
107 1 1 1 1 226.4238808998733 -280.2618221666249 0
108 1 1 1 1 -95.16515224611464 -190.6944391011134 0
109 1 1 1 1 -91.9875368007535 -277.6714451635703 0
110 1 1 1 1 258.529096600673 -76.71260836372827 0
111 1 1 1 1 -21.68236085057686 208.1359167402699 0
112 1 1 1 1 -12.47866667392316 -125.1908407411015 0
113 1 1 1 1 102.1175126767666 284.8332054287237 0
114 1 1 1 1 413.1199216884592 222.2820252582592 0
115 1 1 1 1 -201.4219562274309 -284.7639414355418 0
116 1 1 1 1 -289.2877327048137 -112.6111813443925 0
117 1 1 1 1 -164.785881672101 250.6808772729046 0
118 1 1 1 1 53.66546259320171 266.6064271673848 0
119 1 1 1 1 258.0356555635075 -169.9759394275688 0
120 1 1 1 1 188.9531238228315 -128.4149654756021 0
121 1 1 1 1 -477.3301874711214 160.48691500159 0
122 1 1 1 1 71.16033252332613 -36.81702928101808 0
123 1 1 1 1 -25.09790059756017 -7.237612164894358 0
124 1 1 1 1 211.3417619799315 165.0105490570363 0
125 1 1 1 1 -391.3544558858093 240.2642135717994 0
126 1 1 1 1 326.157256603949 -251.8181170064478 0
127 1 1 1 1 -25.43366254183309 101.7702790891257 0
128 1 1 1 1 449.2227504800288 -267.6536077537081 0
129 1 1 1 1 6.873077901125953 226.496856363398 0
130 1 1 1 1 11.11137880096561 -129.1567476933941 0
131 1 1 1 1 257.3901775441136 -214.3554718383102 0
132 1 1 1 1 -407.7503188415918 -164.1377212722426 0
133 1 1 1 1 479.6140647379002 -150.4115782550929 0
134 1 1 1 1 -44.09909939201145 17.18485624832402 0
135 1 1 1 1 -324.7856913924018 -36.61758749251217 0
136 1 1 1 1 -422.8415305358799 16.14566885206483 0
137 1 1 1 1 -443.4908732954384 -215.9942941618295 0
138 1 1 1 1 -10.57213176807471 -84.69926226994767 0
139 1 1 1 1 -261.5734987621131 -197.839898414672 0
140 1 1 1 1 212.6905888204602 -132.472336394526 0
141 1 1 1 1 256.4354315471202 179.0483919810691 0
142 1 1 1 1 392.855011943546 -282.4107537991768 0
143 1 1 1 1 440.6998253859036 -28.01304494338149 0
144 1 1 1 1 95.99287485358855 234.0694403123205 0
145 1 1 1 1 -310.3073115834424 -209.7016796925652 0
146 1 1 1 1 -345.2997462063038 160.011221605954 0
147 1 1 1 1 -407.0536521852052 55.37039461451479 0
148 1 1 1 1 260.4137249110711 -201.190822472115 0
149 1 1 1 1 117.2500885803307 -44.78277399995955 0
150 1 1 1 1 473.1096244223929 -5.727899673398042 0
151 1 1 1 1 -350.1885844645951 -176.62674448455 0
152 1 1 1 1 -187.0859205441483 181.3717283913848 0
153 1 1 1 1 83.53699792280838 274.3751729664845 0
154 1 1 1 1 356.4872829224205 -19.57278379544243 0
155 1 1 1 1 75.2490482503805 79.32579891710986 0
156 1 1 1 1 -304.2322043704224 50.01670551311838 0
157 1 1 1 1 246.7516748423633 -234.2405448665535 0
158 1 1 1 1 -23.08372869824069 -79.20333008429367 0
159 1 1 1 1 206.4821879055537 32.70270539702096 0
160 1 1 1 1 322.195827470523 -135.6157843723981 0
161 1 1 1 1 -209.8215630763309 -106.5348648838663 0
162 1 1 1 1 -378.1229357949226 150.0095455421741 0
163 1 1 1 1 260.4649073193044 -240.9271626701703 0
164 1 1 1 1 -27.2764843685755 18.11596520029355 0
165 1 1 1 1 23.94666039239917 -110.1334830874404 0
166 1 1 1 1 364.1804388862155 58.23896700618877 0
167 1 1 1 1 395.3184616433724 -225.0830622772061 0
168 1 1 1 1 -10.27383482389507 168.7139558340679 0
169 1 1 1 1 331.756089501867 224.4616722044659 0
170 1 1 1 1 268.335657302664 -119.7432235359879 0
171 1 1 1 1 296.2607911837744 -163.3956086093338 0
172 1 1 1 1 -13.82927274345099 155.4216929706515 0
173 1 1 1 1 -49.96750812500574 -285.4144781093552 0
174 1 1 1 1 -232.8839237291899 110.849788641764 0
175 1 1 1 1 441.7987227162081 -112.3652164662648 0
176 1 1 1 1 114.6577644907144 169.1808150194538 0
177 1 1 1 1 -450.0809681654686 -39.57135999387901 0
178 1 1 1 1 -372.1235610916755 -124.34613673246 0
179 1 1 1 1 70.57429510902489 -269.6342562093362 0
180 1 1 1 1 -39.87429733540392 142.9112232428674 0
181 1 1 1 1 -142.3608239646867 273.1102736233656 0
182 1 1 1 1 239.4677214307644 132.2488039746417 0
183 1 1 1 1 -29.87674907555243 -242.1361635282924 0
184 1 1 1 1 226.2212920703581 19.2493824239192 0
185 1 1 1 1 -166.5576563679189 -37.29573760934997 0
186 1 1 1 1 439.0246702935162 245.1910457858472 0
187 1 1 1 1 -35.8672394880785 -2.22294167831285 0
188 1 1 1 1 317.6681938770005 60.39640283457658 0
189 1 1 1 1 -118.8610024909473 8.704954018697151 0
190 1 1 1 1 -356.9254958451785 -2.565374958134498 0
191 1 1 1 1 221.4082364462058 -103.4286258792203 0
192 1 1 1 1 -336.4571394336237 -38.190534797471 0
193 1 1 1 1 117.7831035631186 -85.91404299703498 0
194 1 1 1 1 410.5719457952878 -75.57449983438448 0
195 1 1 1 1 -141.3513295112547 171.4621075408778 0
196 1 1 1 1 467.9582238439652 -115.3388971541617 0
197 1 1 1 1 178.7400465433735 -111.0633491445902 0
198 1 1 1 1 -66.59567804400535 62.62078803180447 0
199 1 1 1 1 -351.0068874638832 -277.8826806164731 0
200 1 1 1 1 -182.1195161700737 191.5493215877906 0
201 1 1 1 1 -195.7966860312749 -164.6270084974041 0
202 1 1 1 1 47.00093000131324 -189.0331905502632 0
203 1 1 1 1 447.7488203298377 -234.6713368088008 0
204 1 1 1 1 -432.7354880343523 221.2977892652338 0
205 1 1 1 1 -397.0796318557751 -68.03333533109296 0
206 1 1 1 1 -429.7798383249101 -51.77098895073289 0
207 1 1 1 1 314.1863504774258 -63.7096338006867 0
208 1 1 1 1 -459.1075375412817 114.4137678622058 0
209 1 1 1 1 -19.14316116220226 -217.3273822692443 0
210 1 1 1 1 221.2969682286317 218.3549486110979 0
211 1 1 1 1 -390.7661416874193 134.8838263458209 0
212 1 1 1 1 471.6642479717214 -217.8211041945818 0
213 1 1 1 1 -126.0832960352531 154.0383697266931 0
214 1 1 1 1 -442.8261171504925 -6.24343260489627 0
215 1 1 1 1 20.15406136200181 92.23437741379394 0
216 1 1 1 1 -377.5761604004628 81.40725572245856 0
217 1 1 1 1 93.74465937579078 199.1609565934044 0
218 1 1 1 1 466.433033354638 -241.9888892477061 0
219 1 1 1 1 65.97450022861415 187.8203075620704 0
220 1 1 1 1 -28.54896175091056 35.34562751011174 0
221 1 1 1 1 -308.2359660778519 3.838763960640677 0
222 1 1 1 1 -253.9007256334863 -55.14640126006492 0
223 1 1 1 1 39.43781793718893 -73.19807456895052 0
224 1 1 1 1 442.2608749895917 262.8608677951834 0
225 1 1 1 1 -351.0503529692581 71.79313816914203 0
226 1 1 1 1 400.8616237714733 -213.5412659465978 0
227 1 1 1 1 -478.2555419396844 204.5588188759419 0
228 1 1 1 1 205.7738411392213 252.9462117866937 0
229 1 1 1 1 192.9147181314082 40.17294868280465 0
230 1 1 1 1 -401.6153643893564 -178.7825683758388 0
231 1 1 1 1 -281.469086098475 156.0783824779246 0
232 1 1 1 1 133.1877598159832 158.1364099012048 0
233 1 1 1 1 -421.4193893492221 142.0572917797832 0
234 1 1 1 1 422.4102529536353 -105.7873109688712 0
235 1 1 1 1 -290.3470188012162 263.976627041401 0
236 1 1 1 1 135.222566134094 -203.6684003499757 0
237 1 1 1 1 203.6202743643451 -62.08774820639397 0
238 1 1 1 1 -141.3186075908158 43.8433049178629 0
239 1 1 1 1 -233.2389565318227 -174.6417980108352 0
240 1 1 1 1 285.100571715819 -145.130102222438 0
241 1 1 1 1 273.5607690329257 103.499847711718 0
242 1 1 1 1 306.9126515521793 125.3363957928428 0
243 1 1 1 1 208.6133300289863 -8.229790282517683 0
244 1 1 1 1 205.1900966042292 -81.8914227832542 0
245 1 1 1 1 -312.2694112625939 -83.88065508967875 0
246 1 1 1 1 103.7027110530304 51.6410509200353 0
247 1 1 1 1 82.17039677637388 18.7987293216429 0
248 1 1 1 1 -143.7440563384934 -134.0379508455171 0
249 1 1 1 1 306.5601153339591 231.5473456665301 0
250 1 1 1 1 258.8551875721116 -90.92213989194565 0
251 1 1 1 1 -174.9728072541566 98.16702981124507 0
252 1 1 1 1 109.1933232218397 136.8929802063087 0
253 1 1 1 1 269.5192991797616 -170.0095128174574 0
254 1 1 1 1 -243.414658286795 -119.0423035369456 0
255 1 1 1 1 401.6238325906721 -79.24143605455703 0
256 1 1 1 1 212.5654810031864 -88.33070356747112 0
257 1 1 1 1 200.9631325935294 57.09845797870025 0
258 1 1 1 1 408.4232848727831 -184.9176369880507 0
259 1 1 1 1 41.68894372857767 249.1649727266336 0
260 1 1 1 1 81.25053630112427 -49.12116633042643 0
261 1 1 1 1 422.3163174557815 1.511712866483322 0
262 1 1 1 1 -89.35986368193699 145.6147859665184 0
263 1 1 1 1 280.1793283515236 168.09643764482 0
264 1 1 1 1 -423.6271075755799 86.78635157559609 0
265 1 1 1 1 -182.8832803289347 -77.51288567352847 0
266 1 1 1 1 -419.9829420985163 246.8333024250924 0
267 1 1 1 1 191.7161119018683 102.5861696410416 0
268 1 1 1 1 110.3203939527047 -240.9110745266708 0
269 1 1 1 1 -297.3340843576578 -179.1393279416931 0
270 1 1 1 1 364.2755436640581 -42.40460234750634 0
271 1 1 1 1 13.42510952036315 -222.6691662056794 0
272 1 1 1 1 -21.42603547160883 139.4294377687527 0
273 1 1 1 1 -246.1571999711938 189.830575409057 0
274 1 1 1 1 455.8779076242886 -189.1185900753109 0
275 1 1 1 1 -433.5543538277393 -171.2179078698804 0
276 1 1 1 1 349.1688213557991 -250.1968975456021 0
277 1 1 1 1 478.3689795818024 64.29602181843313 0
278 1 1 1 1 39.08059771402429 -162.3554838706656 0
279 1 1 1 1 -360.3867049125724 -254.1666916339955 0
280 1 1 1 1 -264.4609379346505 -226.3500937911792 0
281 1 1 1 1 -410.3749648671991 237.9950155249054 0
282 1 1 1 1 113.8168371194952 26.79186968478479 0
283 1 1 1 1 -105.1359019404794 276.3314654297197 0
284 1 1 1 1 -392.1420747670149 -260.4580137277977 0
285 1 1 1 1 -38.29640644198798 -61.30382625643264 0
286 1 1 1 1 -249.6992462575068 -189.9163681029631 0
287 1 1 1 1 -63.39433140569872 226.3650798034985 0
288 1 1 1 1 296.5546236163469 -37.05890519400813 0
289 1 1 1 1 120.3776365303462 -239.3407011244202 0
290 1 1 1 1 -300.6916429942717 214.2769000378445 0
291 1 1 1 1 319.4731987253708 44.75187573089181 0
292 1 1 1 1 -431.9835552918913 -270.2012364444296 0
293 1 1 1 1 447.1168644297504 13.70453343751069 0
294 1 1 1 1 165.34029409229 178.7815187163475 0
295 1 1 1 1 -414.8682589485835 112.1499377610867 0
296 1 1 1 1 28.55149370764218 106.4600605601382 0
297 1 1 1 1 53.13239724067103 197.5574772602703 0
298 1 1 1 1 178.3879340405571 67.85835810666316 0
299 1 1 1 1 -19.94663194793191 -139.8316541043886 0
300 1 1 1 1 -52.01146316086908 103.0066854840219 0
301 1 1 1 1 390.0241214778757 -243.610882474849 0
302 1 1 1 1 246.5123312169187 -200.5921107621512 0
303 1 1 1 1 -278.6319288738145 -203.6113383967555 0
304 1 1 1 1 399.4060776213357 -61.91957610637724 0
305 1 1 1 1 -292.5822814508217 279.6708895516754 0
306 1 1 1 1 30.78569479609047 -147.8409183217783 0
307 1 1 1 1 363.1305763944621 -179.388136654126 0
308 1 1 1 1 -226.4075828055386 -278.3734527054895 0
309 1 1 1 1 292.1328951006844 168.8418155348885 0
310 1 1 1 1 415.3148078263823 -287.0528905496446 0
311 1 1 1 1 407.7106210961201 236.7885295619888 0
312 1 1 1 1 394.9993755924547 194.3129026910168 0
313 1 1 1 1 -117.3774120329819 278.2127752034614 0
314 1 1 1 1 -152.2383843209173 -205.3052280555708 0
315 1 1 1 1 391.4656563834676 -73.28113525961504 0
316 1 1 1 1 17.98019621172978 -36.79310122896357 0
317 1 1 1 1 -353.891335912847 147.3724113108261 0
318 1 1 1 1 -183.3010085807646 -168.7867487052193 0
319 1 1 1 1 306.0759166566114 -4.477289883966137 0
320 1 1 1 1 449.9369319515562 200.7221879435018 0
321 1 1 1 1 -422.2909717642192 66.8019811835087 0
322 1 1 1 1 -274.4811571597118 169.2007252577594 0
323 1 1 1 1 -419.487471615088 -77.70024237900199 0
324 1 1 1 1 -13.45319774006453 -12.26565059345774 0
325 1 1 1 1 -283.1242424980015 -65.70746384031986 0
326 1 1 1 1 34.71382984654326 210.7145713961078 0
327 1 1 1 1 34.63143603606181 -106.0902525627642 0
328 1 1 1 1 378.3777231845184 221.0643940761968 0
329 1 1 1 1 22.7356248890718 279.6954941380316 0
330 1 1 1 1 365.274219911247 241.5521188680982 0
331 1 1 1 1 55.32731049629228 -202.0402415878259 0
332 1 1 1 1 -11.10334292519218 -167.9519520510465 0
333 1 1 1 1 -317.8853907306127 -71.27573101143705 0
334 1 1 1 1 333.4207330580525 269.4822035161224 0
335 1 1 1 1 115.5247847892535 -72.96959900425983 0
336 1 1 1 1 366.8833740977962 -229.6086504527297 0
337 1 1 1 1 -327.5338596301572 -221.3450885895969 0
338 1 1 1 1 289.9162938731076 152.5520562547566 0
339 1 1 1 1 236.1719383811891 -68.73415220453754 0
340 1 1 1 1 113.8952365812731 -129.2379751943639 0
341 1 1 1 1 100.4383608867762 182.8004922992054 0
342 1 1 1 1 -474.90745162158 -111.8771164891698 0
343 1 1 1 1 -464.1466081694748 -196.7464060050619 0
344 1 1 1 1 478.306275888628 236.9383026431399 0
345 1 1 1 1 -165.7992239514967 -138.3884402766408 0
346 1 1 1 1 243.2195731299363 146.5496003645171 0
347 1 1 1 1 159.8606493068306 45.87409537481102 0
348 1 1 1 1 -110.8609979990375 -26.78894003614698 0
349 1 1 1 1 124.1149233083606 -206.5063230866002 0
350 1 1 1 1 101.4760608429004 39.17239571561566 0
351 1 1 1 1 338.5062810373972 38.31318071993024 0
352 1 1 1 1 436.7415953976645 115.273200916912 0
353 1 1 1 1 -427.7286553555238 177.3512356328887 0
354 1 1 1 1 -396.2677972587139 -129.8920275584109 0
355 1 1 1 1 297.481645300203 -194.932490341715 0
356 1 1 1 1 205.8803096255676 -241.6715967726801 0
357 1 1 1 1 202.3417716551501 13.27062633368894 0
358 1 1 1 1 -235.4302306398125 -17.15946821140972 0
359 1 1 1 1 -347.9612555420326 126.3367344224724 0
360 1 1 1 1 -322.6760809414366 26.64821917216023 0
361 1 1 1 1 342.463785681845 161.3089281396 0
362 1 1 1 1 194.1639381464729 280.2891081359468 0
363 1 1 1 1 -75.23518990242053 193.7296582102164 0
364 1 1 1 1 -116.353517773915 -287.4884721584144 0
365 1 1 1 1 -67.66570600428196 147.1755848112547 0
366 1 1 1 1 -247.78280829567 213.9104707960811 0
367 1 1 1 1 176.1779453866539 -247.8802781956106 0
368 1 1 1 1 -453.6632847562244 -51.86656277713306 0
369 1 1 1 1 336.3198832783959 133.4511571480625 0
370 1 1 1 1 212.3845905920229 -72.3298516342856 0
371 1 1 1 1 -383.9959728719349 92.54573955595038 0
372 1 1 1 1 168.5823935742267 271.4059634791234 0
373 1 1 1 1 -415.8687328383157 270.149426419399 0
374 1 1 1 1 181.5662776599191 -161.4422723947095 0
375 1 1 1 1 -354.94260760874 -157.2112986706279 0
376 1 1 1 1 147.4473365900519 101.643668263227 0
377 1 1 1 1 192.9437684199937 162.7599191371954 0
378 1 1 1 1 -478.1559519716724 95.90223818851075 0
379 1 1 1 1 -404.3250185790125 -38.75566307187475 0
380 1 1 1 1 -129.4934970981262 33.41019863661859 0
381 1 1 1 1 364.3103718617904 -153.807392916218 0
382 1 1 1 1 -13.88284589029945 -115.6020210819177 0
383 1 1 1 1 56.68040669639277 -117.2434733179246 0
384 1 1 1 1 -426.9964292436656 257.4681215410107 0
385 1 1 1 1 -403.2124934676592 208.7797721830067 0
386 1 1 1 1 218.9947230123441 4.119727611987912 0
387 1 1 1 1 397.5313688303958 238.305693036374 0
388 1 1 1 1 151.5201351209001 -217.8524557419881 0
389 1 1 1 1 471.5273163706239 -137.364702810527 0
390 1 1 1 1 -404.8324964146914 191.8844373368299 0
391 1 1 1 1 171.5922494908152 117.4480994662393 0
392 1 1 1 1 201.0609865915376 -263.8445967876817 0
393 1 1 1 1 -217.3710110357491 -182.4375904811333 0
394 1 1 1 1 -432.0068156142114 -122.0654075515889 0
395 1 1 1 1 -43.69676198364505 170.7917282455891 0
396 1 1 1 1 -254.9122085062665 173.539914837832 0
397 1 1 1 1 205.4520087006246 223.4652143959773 0
398 1 1 1 1 366.4771398850631 -23.9844536562083 0
399 1 1 1 1 -202.8849040253142 -41.2116117492061 0
400 1 1 1 1 344.0666126873914 29.37638541403578 0
401 1 1 1 1 32.03055513404888 -281.1205629880803 0
402 1 1 1 1 -362.8423830306475 -264.1799165679091 0
403 1 1 1 1 124.7309861751143 5.375643693809991 0
404 1 1 1 1 -450.2097508110123 14.041680525559 0
405 1 1 1 1 -255.2575301935684 -152.3512844426008 0
406 1 1 1 1 -477.9428529168375 187.7965795423678 0
407 1 1 1 1 -336.2249951587467 -117.2390734467769 0
408 1 1 1 1 125.6412738747681 42.46148990907881 0
409 1 1 1 1 305.7047014656555 282.4954830796526 0
410 1 1 1 1 57.09610531364558 -50.53929911682192 0
411 1 1 1 1 42.43353506681854 -93.13768385057145 0
412 1 1 1 1 300.8382542800893 -92.98703136383654 0
413 1 1 1 1 -370.602907783929 177.9637377613583 0
414 1 1 1 1 -477.3743346245742 -78.71008458323985 0
415 1 1 1 1 -155.901913803784 127.7446343702874 0
416 1 1 1 1 -321.3839862390278 -112.0268335947976 0
417 1 1 1 1 -468.7545225598672 -250.2619444448036 0
418 1 1 1 1 -363.6259349196975 -235.3248344527522 0
419 1 1 1 1 18.23021200445919 108.992784882317 0
420 1 1 1 1 118.6374017526501 102.5023546115718 0
421 1 1 1 1 75.62410099168358 56.6152324683942 0
422 1 1 1 1 25.46116347406121 261.8013427994708 0
423 1 1 1 1 15.32568265639725 123.319053290585 0
424 1 1 1 1 381.8321879272579 -179.7746521367054 0
425 1 1 1 1 18.84102779345687 184.4752787367916 0
426 1 1 1 1 -22.30269723983111 -19.36016096900556 0
427 1 1 1 1 477.8861636673872 194.4547380820782 0
428 1 1 1 1 -28.14734406309333 -279.4103243149072 0
429 1 1 1 1 71.85038302490762 -196.2209804292729 0
430 1 1 1 1 -79.85012595824901 181.0567568520979 0
431 1 1 1 1 101.0414958009275 130.5993751536167 0
432 1 1 1 1 -109.1847080601705 102.069815426162 0
433 1 1 1 1 162.3645813682974 -58.65642826778603 0
434 1 1 1 1 -2.754465053256126 -34.64950899452393 0
435 1 1 1 1 -62.68043187145122 -226.7982771762559 0
436 1 1 1 1 467.9911113693621 67.58875818007323 0
437 1 1 1 1 6.900408989449488 174.1157433674804 0
438 1 1 1 1 -126.7327194385562 -268.1630691098897 0
439 1 1 1 1 -270.7340847900196 230.0201605196089 0
440 1 1 1 1 174.080164116201 -50.60772657019783 0
441 1 1 1 1 377.4581110779723 39.4720888645009 0
442 1 1 1 1 -9.752144334945342 42.27837278203765 0
443 1 1 1 1 115.7924688676879 -97.19958216905951 0
444 1 1 1 1 160.8602875028819 277.8348944027156 0
445 1 1 1 1 416.2281164138193 -61.20975825644388 0
446 1 1 1 1 320.2285888886117 271.9342887109399 0
447 1 1 1 1 234.8391815136478 -172.5021809503502 0
448 1 1 1 1 -362.451873102139 -184.5098688005503 0
449 1 1 1 1 191.915954420174 196.9159572635095 0
450 1 1 1 1 463.9398696817224 87.20292651577699 0
451 1 1 1 1 -105.3985136823238 163.8042376754322 0
452 1 1 1 1 -148.9163058049255 36.05989666039119 0
453 1 1 1 1 277.5604110510043 253.2538288046688 0
454 1 1 1 1 312.2423831692686 -115.6266988228762 0
455 1 1 1 1 -130.0538161918368 -209.2695891519431 0
456 1 1 1 1 153.2670046996435 188.1017894354851 0
457 1 1 1 1 253.0574803428235 26.58059343566202 0
458 1 1 1 1 380.1273453482829 273.7410256051579 0
459 1 1 1 1 -45.44111774827934 -12.88059794222869 0
460 1 1 1 1 176.667104241506 -8.510636986749205 0
461 1 1 1 1 -418.7286023647799 218.2445934595158 0
462 1 1 1 1 -466.0039130161483 -73.01897331444644 0
463 1 1 1 1 -205.5907398999365 -54.47165962643248 0
464 1 1 1 1 -196.3906994591275 248.281616492386 0
465 1 1 1 1 -282.5758564203082 -190.8632213035223 0
466 1 1 1 1 -293.8803480895678 -30.51768810393492 0
467 1 1 1 1 224.9322028531269 -213.7447003511306 0
468 1 1 1 1 476.6879637186153 -246.2262661503236 0
469 1 1 1 1 -245.3284102538262 -222.8047715289616 0
470 1 1 1 1 292.4314591319545 -62.48277072094993 0
471 1 1 1 1 -187.2728993795953 -104.3129187346922 0
472 1 1 1 1 32.04582945937716 -95.75520587246791 0
473 1 1 1 1 -314.0614426977302 229.2742673320116 0
474 1 1 1 1 33.31406182937349 -183.2080320469923 0
475 1 1 1 1 -43.26948983371995 75.40412748342158 0
476 1 1 1 1 -126.0042583603951 208.6355582591676 0
477 1 1 1 1 -398.1315007641553 -7.230579897682674 0
478 1 1 1 1 -463.3139648828427 -22.62552266592678 0
479 1 1 1 1 -423.3848080720503 -87.94941041893907 0
480 1 1 1 1 -28.99385309305376 -214.835191864789 0
481 1 1 1 1 433.7263005227549 161.5148436902512 0
482 1 1 1 1 346.6809972769042 -38.59669326039705 0
483 1 1 1 1 -445.8187991714825 -269.6733167768316 0
484 1 1 1 1 218.5335573768965 155.4882096295378 0
485 1 1 1 1 -158.4838954909366 -220.5489959080432 0
486 1 1 1 1 12.2038637803621 76.31343160246132 0
487 1 1 1 1 -118.0768040809429 231.2505764304872 0
488 1 1 1 1 -274.7815522345684 -136.1265268794844 0
489 1 1 1 1 -228.6505366688644 -54.6229019138936 0
490 1 1 1 1 -196.7739724933609 -193.3902872142048 0
491 1 1 1 1 102.4706582329897 -166.0270965360786 0
492 1 1 1 1 166.2597861181129 -7.012114149748413 0
493 1 1 1 1 -478.914367136881 111.4211178908051 0
494 1 1 1 1 302.1655808042639 -147.723103983324 0
495 1 1 1 1 426.8318957892049 -70.1317002564922 0
496 1 1 1 1 74.53443426340004 217.855791492389 0
497 1 1 1 1 -210.5741086916605 -87.98525838352413 0
498 1 1 1 1 -115.0519510036751 212.3065290537024 0
499 1 1 1 1 211.2100636658681 -143.3655640149701 0
500 1 1 1 1 -239.5474251290814 -90.72010921452048 0
501 1 1 1 1 -239.2527412096636 -253.1907347374224 0
502 1 1 1 1 -328.399021981795 166.3125599649646 0
503 1 1 1 1 12.82069336992288 269.6674338099807 0
504 1 1 1 1 194.7804452947079 -8.456857596156794 0
505 1 1 1 1 -102.4679612055736 230.1655925366232 0
506 1 1 1 1 -350.6564662942342 -17.63764429737842 0
507 1 1 1 1 354.5928956540262 235.9774353191997 0
508 1 1 1 1 -254.9335957350377 19.54202391920438 0
509 1 1 1 1 474.1925889783863 -201.6298368981127 0
510 1 1 1 1 156.4756237673297 242.2176394537047 0
511 1 1 1 1 -132.2906173768091 242.3048514925448 0
512 1 1 1 1 400.7307240488296 14.40468493455256 0
513 1 1 1 1 354.2211055164692 72.06983886064779 0
514 1 1 1 1 68.65636268654248 277.2450090960823 0
515 1 1 1 1 -110.7889114165474 79.86290617305002 0
516 1 1 1 1 -379.7962615640121 219.590305217957 0
517 1 1 1 1 256.0179247982593 -274.0738376866485 0
518 1 1 1 1 277.8591580550574 -184.0880815512355 0
519 1 1 1 1 -193.9176569578802 -92.99280106007751 0
520 1 1 1 1 -439.5548400755239 -111.3079037100885 0
521 1 1 1 1 -71.32786209136503 -89.98045153348721 0
522 1 1 1 1 373.8345128721702 -12.3168023622323 0
523 1 1 1 1 -435.7788595450558 6.471306057020172 0
524 1 1 1 1 -82.12195906806721 -138.4848117010476 0
525 1 1 1 1 298.3618225895768 142.4227135189529 0
526 1 1 1 1 -132.5404437545528 275.7276817587917 0
527 1 1 1 1 -331.2912041501182 -91.39836009976452 0
528 1 1 1 1 400.1219671659193 71.41630225723623 0
529 1 1 1 1 -386.6010265880825 -105.3661450395979 0
530 1 1 1 1 412.2208507224336 250.5000783428617 0
531 1 1 1 1 224.5920200835216 84.88886322524382 0
532 1 1 1 1 -185.1316844477782 -159.2450418997042 0
533 1 1 1 1 -290.1781628534491 205.4843540767603 0
534 1 1 1 1 -340.3765289335628 -252.2552663113854 0
535 1 1 1 1 -416.6976242946328 227.9858330096289 0
536 1 1 1 1 260.7810251645642 279.9046121840945 0
537 1 1 1 1 40.17076852121022 -256.7201521980824 0
538 1 1 1 1 -73.49770689771196 -33.85763433501595 0
539 1 1 1 1 -427.8832583154979 -106.6608806434199 0
540 1 1 1 1 289.5779440347664 48.5658297276446 0
541 1 1 1 1 448.5419910174697 123.4684274820205 0
542 1 1 1 1 -224.6517464159761 -224.5961889044477 0
543 1 1 1 1 166.9689912126843 -202.7426713511411 0
544 1 1 1 1 -0.3443009519707516 -59.58151691722458 0
545 1 1 1 1 168.7263635901898 -112.8529286103193 0
546 1 1 1 1 -381.3977959440385 -83.00890786034873 0
547 1 1 1 1 -442.2652042375103 -29.81334484078082 0
548 1 1 1 1 21.75128942991893 -99.26226047098629 0
549 1 1 1 1 -338.0327798446398 76.93815034747547 0
550 1 1 1 1 -260.7775318229385 -270.3106606071562 0
551 1 1 1 1 249.4489036208259 -285.8648521840783 0
552 1 1 1 1 468.8680480234623 155.7576100321271 0
553 1 1 1 1 149.3807616681229 -135.9406406941556 0
554 1 1 1 1 -119.280555871804 37.22099273269356 0
555 1 1 1 1 7.661925768537572 -43.00073188134803 0
556 1 1 1 1 -376.1965517166529 234.6723451852192 0
557 1 1 1 1 13.14569480435989 161.7041471840646 0
558 1 1 1 1 -334.9065511518504 -234.2960620209335 0
559 1 1 1 1 -359.08201819828 7.018287958442159 0
560 1 1 1 1 475.7371223386209 272.6742650369995 0
561 1 1 1 1 222.3991467014591 70.60084416557675 0
562 1 1 1 1 -24.76786729408252 -130.0753776360451 0
563 1 1 1 1 -184.909931880918 0.6573405981193332 0
564 1 1 1 1 -326.9765011038048 92.98060225697617 0
565 1 1 1 1 431.8676451933675 -6.495610700708028 0
566 1 1 1 1 292.8917387858523 249.5931847471443 0
567 1 1 1 1 -261.6517285800419 185.2223753011583 0
568 1 1 1 1 84.04714734790514 132.6027240934686 0
569 1 1 1 1 244.9441833500235 -127.2440665143454 0
570 1 1 1 1 -39.85324473525554 41.46128667377485 0
571 1 1 1 1 -100.415593676239 -147.8599331603163 0
572 1 1 1 1 -323.8657839379647 -261.5130042645 0
573 1 1 1 1 479.8158457627774 76.51237276001666 0
574 1 1 1 1 -307.2859595646656 100.4768267641486 0
575 1 1 1 1 366.0510744669882 135.3932182045444 0
576 1 1 1 1 -135.5535384189484 160.4321892969782 0
577 1 1 1 1 305.0522638713755 83.26271499948803 0
578 1 1 1 1 -141.9674901789139 99.0525867124727 0
579 1 1 1 1 168.0934542337437 40.91449706018017 0
580 1 1 1 1 273.1568244989585 -256.0994006763192 0
581 1 1 1 1 -12.30415797728898 -233.6846728881864 0
582 1 1 1 1 376.2850387882008 12.84434831695751 0
583 1 1 1 1 -194.083049206855 95.65740293474568 0
584 1 1 1 1 224.1266424914978 -149.6840406984977 0
585 1 1 1 1 290.2701280608111 64.77097782408191 0
586 1 1 1 1 351.8394330731812 109.2313784982785 0
587 1 1 1 1 341.4362689348362 -98.27643024069278 0
588 1 1 1 1 263.3943227665559 -284.5667194629547 0
589 1 1 1 1 204.595730204303 107.7292631890263 0
590 1 1 1 1 -384.298743801942 -245.8445688558943 0