

975 atoms
2328 bonds
1 atom types
1 bond types
-240 240 xlo xhi
-144 144 ylo yhi
-32 32 zlo zhi

Atoms #bpm/sphere

1 1 1 1 1 187.947194826369 -113.2190678634339 0
2 1 1 1 1 -0.365184775649567 -105.5415457121069 0
3 1 1 1 1 102.4823233432416 119.1745900704378 0
4 1 1 1 1 -222.1663444674815 83.51754875103637 0
5 1 1 1 1 -139.0731318996339 99.05705578759094 0
6 1 1 1 1 75.32148500555644 -103.0595269285269 0
7 1 1 1 1 -147.5805856974137 -12.51065593495574 0
8 1 1 1 1 43.27382556994081 44.17097802261051 0
9 1 1 1 1 57.48448961087598 20.16459151567514 0
10 1 1 1 1 -37.65195635750621 88.92884476818622 0
11 1 1 1 1 -237.0806450126856 119.1242277939612 0
12 1 1 1 1 -99.78020370083951 -109.7166254226154 0
13 1 1 1 1 -60.97249661274822 -78.27023229398912 0
14 1 1 1 1 42.03753949843338 -114.87064548364 0
15 1 1 1 1 126.8420586226744 -50.8121389160284 0
16 1 1 1 1 -29.06482479792473 -82.80523185274178 0
17 1 1 1 1 35.14301876202649 132.9017744271011 0
18 1 1 1 1 128.3735122451546 -85.31716603395222 0
19 1 1 1 1 -107.7781937365607 125.8445504170722 0
20 1 1 1 1 116.8600408772381 4.757726473095062 0
21 1 1 1 1 61.03289129373343 8.470874432671621 0
22 1 1 1 1 122.3528659207632 -125.0154795011632 0
23 1 1 1 1 224.8849024020899 -7.631734173390413 0
24 1 1 1 1 -129.9839736313868 83.11643619888039 0
25 1 1 1 1 -159.6622423233262 -63.90508829400817 0
26 1 1 1 1 0.1449359343322669 94.72168948428299 0
27 1 1 1 1 -116.6453760138103 118.9237831006711 0
28 1 1 1 1 238.8121842547011 -84.94212158908672 0
29 1 1 1 1 194.4886307513345 -70.67130276835414 0
30 1 1 1 1 143.8263476193342 134.2518782188088 0
31 1 1 1 1 215.860235419835 3.308737444845292 0
32 1 1 1 1 169.79732418854 -78.09863335733465 0
33 1 1 1 1 -164.5522504390867 -112.2867451631511 0
34 1 1 1 1 226.5558760402492 -93.13384291042864 0
35 1 1 1 1 143.9723430751335 93.37943937745541 0
36 1 1 1 1 36.58112898063501 -71.19172589314398 0
37 1 1 1 1 1.928737636538585 37.72811811868223 0
38 1 1 1 1 3.642082885396036 -8.568428613165565 0
39 1 1 1 1 151.687661192378 20.58721874771945 0
40 1 1 1 1 145.7601796566335 82.3287199952652 0
41 1 1 1 1 215.1752698373766 -26.96819240770571 0
42 1 1 1 1 181.7191511219724 16.81217033264116 0
43 1 1 1 1 -160.9224410194156 41.46151454287744 0
44 1 1 1 1 73.06699469284098 21.06862611006272 0
45 1 1 1 1 -187.8279009968743 12.74770237087597 0
46 1 1 1 1 -213.0735951576929 -81.71775950136222 0
47 1 1 1 1 -58.22050993945425 -44.66634759445004 0
48 1 1 1 1 -178.4162391280262 -127.2085563696023 0
49 1 1 1 1 151.7117349354187 10.24453808776127 0
50 1 1 1 1 -176.3826293386919 125.4895560261918 0
51 1 1 1 1 -217.7888342936915 25.40757304169176 0
52 1 1 1 1 -138.773279280733 -58.21165460456973 0
53 1 1 1 1 -127.7604574168939 -116.9077884900412 0
54 1 1 1 1 171.9094669473173 -139.2149446505585 0
55 1 1 1 1 -223.232448118432 -69.03567687644497 0
56 1 1 1 1 160.1802162477896 95.13373933879237 0
57 1 1 1 1 -196.3193216233608 1.864024781820859 0
58 1 1 1 1 133.1782528434276 -98.36691572629205 0
59 1 1 1 1 111.2124783583165 45.40622742512613 0
60 1 1 1 1 -178.1821329692701 -1.243445103698548 0
61 1 1 1 1 105.2566226532552 56.94893622033169 0
62 1 1 1 1 205.7596874133228 -13.71296989343469 0
63 1 1 1 1 101.0507908150066 -75.79377201701801 0
64 1 1 1 1 -127.1587504303258 -142.0628601337491 0
65 1 1 1 1 -50.90272841281148 -17.21398669159916 0
66 1 1 1 1 200.435209833727 131.7812804061135 0
67 1 1 1 1 -141.2914959275026 25.93474628959962 0
68 1 1 1 1 -239.2025775953973 -89.18424072490768 0
69 1 1 1 1 113.3057542283824 -142.0783480838174 0
70 1 1 1 1 38.8084923936658 -46.580887797393 0
71 1 1 1 1 131.3763856220266 95.00077365607265 0
72 1 1 1 1 -156.4285496089845 -101.6253640438754 0
73 1 1 1 1 -220.5669320948736 54.68562727105817 0
74 1 1 1 1 122.87479951734 -27.91586246498471 0
75 1 1 1 1 -97.70015906889958 92.95587540397335 0
76 1 1 1 1 -81.51856938046961 14.07516213476615 0
77 1 1 1 1 190.9725161384144 -8.433472092725282 0
78 1 1 1 1 -48.80275925509989 2.004948833317428 0
79 1 1 1 1 -172.0023853332653 -61.12763386056045 0
80 1 1 1 1 -30.94443326829659 140.8742640000914 0
81 1 1 1 1 145.9743664162777 -52.57164561866578 0
82 1 1 1 1 213.8210900003941 14.39520529203415 0
83 1 1 1 1 123.8300227841504 -109.2227912436999 0
84 1 1 1 1 -14.75092014769561 -15.57410574624024 0
85 1 1 1 1 87.67158557193949 -46.80562573082032 0
86 1 1 1 1 -27.93259385342142 104.3956359396882 0
87 1 1 1 1 -45.10071528750956 -88.26360210755296 0
88 1 1 1 1 -147.0676668865273 -79.1801993546084 0
89 1 1 1 1 178.9996615772293 63.15764864043183 0
90 1 1 1 1 -168.882695462911 96.854157315169 0
91 1 1 1 1 -127.8721600140922 60.21323802736532 0
92 1 1 1 1 163.4498911366867 -3.459120298015279 0
93 1 1 1 1 86.92263669924881 -94.77540869639675 0
94 1 1 1 1 150.7182561825101 -0.1940493056887362 0
95 1 1 1 1 -204.6922337430108 103.9020201075595 0
96 1 1 1 1 -135.1592292520465 35.87345848896737 0
97 1 1 1 1 107.0855485053203 -31.28394701941339 0
98 1 1 1 1 -104.8663369644074 68.94110822284645 0
99 1 1 1 1 200.4210011412657 -103.3648865906869 0
100 1 1 1 1 109.5994281945008 70.20767646816404 0
101 1 1 1 1 100.300212890508 91.89207280688672 0
102 1 1 1 1 199.5196639264709 72.55822339980554 0
103 1 1 1 1 213.5448476071071 -57.35836279511773 0
104 1 1 1 1 111.5825781462573 -93.09969320284465 0
105 1 1 1 1 205.0810745720907 19.84080721333126 0
106 1 1 1 1 -202.9584301493819 -17.64350467089622 0
107 1 1 1 1 -91.23019826781359 -15.9861042268854 0
108 1 1 1 1 89.42889126173242 -112.723962183559 0
109 1 1 1 1 -78.49948727339117 -113.4682703753796 0
110 1 1 1 1 -56.76001094255963 -125.6508271206059 0
111 1 1 1 1 3.251705432442975 11.54851059163752 0
112 1 1 1 1 -24.02432277920158 -61.31120892139106 0
113 1 1 1 1 -22.68110536891069 130.2091513172828 0
114 1 1 1 1 17.02764635014842 116.64559261138 0
115 1 1 1 1 -204.5250308683821 32.53197612631811 0
116 1 1 1 1 -142.6937822771773 45.0163571097809 0
117 1 1 1 1 -1.149180020790055 -72.60771902224657 0
118 1 1 1 1 -131.9098743841993 73.06891110028778 0
119 1 1 1 1 29.70303607249161 41.67793989372655 0
120 1 1 1 1 -7.630624618998752 69.68434206054681 0
121 1 1 1 1 -42.67275663317034 77.04485058586857 0
122 1 1 1 1 150.3234595112237 103.010041642718 0
123 1 1 1 1 -228.994022486245 61.33083028010839 0
124 1 1 1 1 -45.89360276973915 -107.7944540888718 0
125 1 1 1 1 74.25198489886401 132.4022860991598 0
126 1 1 1 1 78.0186666972188 -127.437422566867 0
127 1 1 1 1 104.9094926419001 103.7418508832415 0
128 1 1 1 1 -71.48211340563708 -127.5353714175049 0
129 1 1 1 1 221.5278097220428 -46.83830372835372 0
130 1 1 1 1 33.37399027293611 90.63014351786512 0
131 1 1 1 1 122.4728329161155 106.5142923594315 0
132 1 1 1 1 -110.6613646719687 76.66123370115633 0
133 1 1 1 1 -238.8574352766632 73.66813821830664 0
134 1 1 1 1 234.299188436844 -104.82974027565 0
135 1 1 1 1 86.23832981555068 -10.45533782767222 0
136 1 1 1 1 188.6305883152725 130.4607333105341 0
137 1 1 1 1 95.05132215588486 -17.52242163264873 0
138 1 1 1 1 0.5839741634769382 -128.1227276598138 0
139 1 1 1 1 -211.6238745065333 -113.1693747675438 0
140 1 1 1 1 -179.5772317419923 -26.58640757078733 0
141 1 1 1 1 234.3257895676292 140.9846823099626 0
142 1 1 1 1 -16.23902992931923 96.72362743051551 0
143 1 1 1 1 -121.4696504631167 -69.50588844560819 0
144 1 1 1 1 -178.4106919616116 18.17056439242282 0
145 1 1 1 1 -63.54318229232896 -58.47151455719994 0
146 1 1 1 1 14.46580328315432 -91.98962275916968 0
147 1 1 1 1 -223.1175358018369 100.5933617792411 0
148 1 1 1 1 -31.55020847138334 50.1324097821707 0
149 1 1 1 1 161.5001215626725 -84.97394549047975 0
150 1 1 1 1 -48.09346987011943 99.82393182342037 0
151 1 1 1 1 193.7981074737086 2.319421984952527 0
152 1 1 1 1 -75.9122003617027 -103.6414295256346 0
153 1 1 1 1 120.6838976195249 -59.93637398874615 0
154 1 1 1 1 232.6266410193368 103.9564008303074 0
155 1 1 1 1 -4.416948593634146 47.64263663349428 0
156 1 1 1 1 -154.8695082235301 77.22816462704714 0
157 1 1 1 1 132.7220696695877 78.18762317405213 0
158 1 1 1 1 -65.70040174358778 61.43584136071581 0
159 1 1 1 1 -74.20034312400881 116.7468750663095 0
160 1 1 1 1 -41.46568758636474 143.4790035543397 0
161 1 1 1 1 -122.6229211127981 -89.29612261463252 0
162 1 1 1 1 181.4562951410844 43.49119365740603 0
163 1 1 1 1 -116.7833060236723 -98.80823882222221 0
164 1 1 1 1 8.649363184107244 130.7777817299933 0
165 1 1 1 1 137.7971613900217 110.0540953582667 0
166 1 1 1 1 -187.4373362862606 138.0168873712635 0
167 1 1 1 1 -159.268125494884 -134.3485566310796 0
168 1 1 1 1 7.797276005021246 -37.75812089190261 0
169 1 1 1 1 -158.4168794359238 -89.70363160327204 0
170 1 1 1 1 -158.9612607679236 -44.86635961331092 0
171 1 1 1 1 180.149240381157 -23.15444920653891 0
172 1 1 1 1 -227.1283165917387 -38.82723021494185 0
173 1 1 1 1 -198.5766396695686 -32.37070412510441 0
174 1 1 1 1 -221.0547199790679 36.55997294139507 0
175 1 1 1 1 -113.4195857963155 -4.003767158760184 0
176 1 1 1 1 13.99192345880098 14.70723314175513 0
177 1 1 1 1 -63.90234325867593 -22.2046540741771 0
178 1 1 1 1 88.78974632645679 0.5217856997964532 0
179 1 1 1 1 136.441757340561 -72.57275224555156 0
180 1 1 1 1 -62.775103348416 17.95171824206517 0
181 1 1 1 1 108.4721850851337 -9.63265974645131 0
182 1 1 1 1 205.8343940582084 97.84999018343575 0
183 1 1 1 1 204.3091843086447 58.97251776175187 0
184 1 1 1 1 184.0836725419475 84.8070654852628 0
185 1 1 1 1 239.3887281559265 -41.5064999864471 0
186 1 1 1 1 -116.892575603008 -111.4199196496696 0
187 1 1 1 1 45.23759368022496 61.10360723234359 0
188 1 1 1 1 166.1222834994775 -51.63912240714853 0
189 1 1 1 1 -234.9358636197153 -45.63976843516186 0
190 1 1 1 1 131.0391672949806 34.23028094611504 0
191 1 1 1 1 -172.2522915188594 84.01430146636403 0
192 1 1 1 1 -141.3911891666341 -31.96286913235606 0
193 1 1 1 1 -222.3018701398671 -121.365529594499 0
194 1 1 1 1 63.07848536692188 -101.2096858869036 0
195 1 1 1 1 -61.42656412730653 141.1616052117602 0
196 1 1 1 1 -228.6042281635594 3.117193200439544 0
197 1 1 1 1 91.6127720348872 -141.274467449316 0
198 1 1 1 1 53.25641957012965 -61.52346482307817 0
199 1 1 1 1 170.7729981226654 35.39539554981903 0
200 1 1 1 1 195.1003484727314 -60.32345742573688 0
201 1 1 1 1 -180.9982028465 -90.89162110053101 0
202 1 1 1 1 -159.0915614464071 109.9497727093429 0
203 1 1 1 1 70.15845178404908 116.4149157847905 0
204 1 1 1 1 -113.8957914288108 65.44431486008827 0
205 1 1 1 1 170.7069749876933 -65.23396051624667 0
206 1 1 1 1 -45.14329349162364 131.1713199160394 0
207 1 1 1 1 -190.347432107219 -116.8281448419536 0
208 1 1 1 1 -87.20948096529918 128.2762880548047 0
209 1 1 1 1 27.00431865160101 -28.55916742004388 0
210 1 1 1 1 213.1117254265441 47.66513946292369 0
211 1 1 1 1 7.260942530986938 -56.58923976804941 0
212 1 1 1 1 -208.0934277707424 126.1979019014295 0
213 1 1 1 1 -80.55286123557127 -22.1474552840032 0
214 1 1 1 1 -168.6166288865659 132.1972794297299 0
215 1 1 1 1 -201.9106538216023 -91.62995839511336 0
216 1 1 1 1 221.83691466531 33.77421455983676 0
217 1 1 1 1 209.9317136538696 73.40649930448259 0
218 1 1 1 1 49.17379750631414 -126.8385942058878 0
219 1 1 1 1 82.73516671313445 111.7188265948662 0
220 1 1 1 1 -57.38757072491072 -30.15963472524851 0
221 1 1 1 1 40.87443167444764 -1.089256962101928 0
222 1 1 1 1 132.5827457830096 130.2159398023531 0
223 1 1 1 1 -16.94866126926695 -124.189638373631 0
224 1 1 1 1 190.6934026000728 -141.6410256889168 0
225 1 1 1 1 -129.9443420844734 20.89058123005918 0
226 1 1 1 1 33.81259155555671 102.720899213334 0
227 1 1 1 1 26.3333632225133 -127.1082381703852 0
228 1 1 1 1 8.33005878494572 -112.1546217284876 0
229 1 1 1 1 -120.0335857281259 23.67659835450735 0
230 1 1 1 1 -171.7819945204465 -73.94356160929988 0
231 1 1 1 1 -122.0132333514711 -25.88417206614317 0
232 1 1 1 1 -126.1088722431786 112.8387649488927 0
233 1 1 1 1 -67.41600810588753 77.15862227816854 0
234 1 1 1 1 27.58407113561094 77.68637992882196 0
235 1 1 1 1 66.62568715438198 143.3110640343604 0
236 1 1 1 1 13.75449650508193 -46.93157972183783 0
237 1 1 1 1 93.20810481326765 104.8186447503688 0
238 1 1 1 1 -231.6257348128613 -131.6722040987888 0
239 1 1 1 1 5.669591068254107 -21.41964275766881 0
240 1 1 1 1 -165.4052132706198 9.505934742113567 0
241 1 1 1 1 -196.5511943817934 -132.9187365305993 0
242 1 1 1 1 90.07462241788483 -126.3305288289322 0
243 1 1 1 1 -10.39108767734965 -88.51034590738851 0
244 1 1 1 1 -239.5688594211 86.33084655891571 0
245 1 1 1 1 -141.0475890290501 -104.2214763993028 0
246 1 1 1 1 233.0123607229386 121.6204567896727 0
247 1 1 1 1 -221.9847613202892 118.308850841593 0
248 1 1 1 1 113.2965219018173 23.46217587065905 0
249 1 1 1 1 -31.88022841735133 -120.9896584055557 0
250 1 1 1 1 -140.0472081916597 -143.445281287338 0
251 1 1 1 1 -94.28832077980832 -3.8958581569442 0
252 1 1 1 1 5.016821862866976 51.48655309541635 0
253 1 1 1 1 -7.059834938682485 22.77794402975081 0
254 1 1 1 1 -94.68943686576506 121.5366057100554 0
255 1 1 1 1 136.0142084013934 43.64137968144428 0
256 1 1 1 1 -108.9299939163142 15.13066836275038 0
257 1 1 1 1 67.74096201632608 36.95974923585845 0
258 1 1 1 1 185.4676575791548 -84.226753851352 0
259 1 1 1 1 -39.74554960277382 27.7488360215826 0
260 1 1 1 1 236.5223886764381 -53.48740235428785 0
261 1 1 1 1 239.791693044465 2.098724863133413 0
262 1 1 1 1 -124.8016035566013 -43.13104944717681 0
263 1 1 1 1 143.859528727152 -117.1663605325253 0
264 1 1 1 1 158.3271662596804 72.61706343235551 0
265 1 1 1 1 3.058472016578236 69.68618950933913 0
266 1 1 1 1 54.0053762899509 108.8323919752841 0
267 1 1 1 1 20.0069591313985 128.592899832828 0
268 1 1 1 1 -104.780300964833 4.587668741410312 0
269 1 1 1 1 -168.7897039891579 -48.94338878443266 0
270 1 1 1 1 -151.8436677057559 48.24242646078733 0
271 1 1 1 1 -139.9118623729849 -126.0991765783947 0
272 1 1 1 1 219.3451933127676 -141.8722354283678 0
273 1 1 1 1 -172.8713174555099 -12.90260040999058 0
274 1 1 1 1 -134.9354581992489 -87.74881433112988 0
275 1 1 1 1 69.71105154409094 -135.7941674762621 0
276 1 1 1 1 169.5156067881209 -100.600061605524 0
277 1 1 1 1 -3.90041611745599 -116.9035868676201 0
278 1 1 1 1 -78.53839101647759 -32.13484516385097 0
279 1 1 1 1 236.2055923015755 -120.4284972735436 0
280 1 1 1 1 37.50962613360014 -21.05329198067651 0
281 1 1 1 1 25.00032152222389 30.68411921421213 0
282 1 1 1 1 52.05764957558051 -35.34961475790007 0
283 1 1 1 1 72.44351553610926 -59.81833096454825 0
284 1 1 1 1 -93.13461220932544 65.78225935824554 0
285 1 1 1 1 109.8241592377433 -118.3502795001952 0
286 1 1 1 1 165.6461116928023 128.1545312585603 0
287 1 1 1 1 -26.68972583761064 19.89761736088047 0
288 1 1 1 1 -150.8545497281603 -120.2897201349923 0
289 1 1 1 1 -81.34675249391722 53.92599567834856 0
290 1 1 1 1 -28.11709104539906 -40.99324098365234 0
291 1 1 1 1 -191.0955588239704 114.588794974195 0
292 1 1 1 1 237.5332181332737 17.83947004465682 0
293 1 1 1 1 146.1176393908442 115.2955708758344 0
294 1 1 1 1 142.6510583244859 28.10518501875532 0
295 1 1 1 1 14.88992579026086 -6.126589598530103 0
296 1 1 1 1 -80.00945358623983 -133.2238148208411 0
297 1 1 1 1 -18.03868477014547 -71.71970893837073 0
298 1 1 1 1 209.0235120641065 -127.0167055937456 0
299 1 1 1 1 42.17385542603938 110.8785158263472 0
300 1 1 1 1 -231.247365612304 -104.6408180394983 0
301 1 1 1 1 -228.2460090845522 -55.88483834753923 0
302 1 1 1 1 137.5827685886597 -127.4999088941592 0
303 1 1 1 1 158.7064376530307 -141.5954404749037 0
304 1 1 1 1 205.9081224281844 -114.6242586055478 0
305 1 1 1 1 -198.5644258667531 52.87585800347517 0
306 1 1 1 1 161.1088380182281 141.1990035729715 0
307 1 1 1 1 111.5225638084938 -70.68368791349205 0
308 1 1 1 1 -159.3463487229241 137.0791252989956 0
309 1 1 1 1 -114.4821695680163 -140.0152147908664 0
310 1 1 1 1 194.5233653999312 29.03528512288227 0
311 1 1 1 1 -211.0747570311996 -50.17401148557691 0
312 1 1 1 1 19.59358843909695 92.22855055966915 0
313 1 1 1 1 103.3852253431011 20.22713973789232 0
314 1 1 1 1 -159.6420862707491 27.56264416154292 0
315 1 1 1 1 13.63793776050392 4.481860171959966 0
316 1 1 1 1 120.7506621783823 50.10577633798167 0
317 1 1 1 1 -215.0371742952393 44.39720081828179 0
318 1 1 1 1 84.21732477303806 139.977103343785 0
319 1 1 1 1 204.0061624316075 -34.65536164083957 0
320 1 1 1 1 -201.0372161041869 10.55614238903536 0
321 1 1 1 1 -7.918693354149326 1.234879123645527 0
322 1 1 1 1 -116.2658767734525 97.45187002260897 0
323 1 1 1 1 -33.24859563599841 -99.31663898819585 0
324 1 1 1 1 94.67394658357489 55.89388590163793 0
325 1 1 1 1 -171.497464370808 -86.55014392465118 0
326 1 1 1 1 39.6586133285557 142.3935333962372 0
327 1 1 1 1 -39.45824221134569 -38.09716216878653 0
328 1 1 1 1 -21.75045067195083 76.46954438140315 0
329 1 1 1 1 90.64146663302444 38.26843726236845 0
330 1 1 1 1 -9.08861794856125 139.0788209067887 0
331 1 1 1 1 -97.35636505096431 52.32581965153409 0
332 1 1 1 1 208.7013071082 123.6329145468326 0
333 1 1 1 1 -149.8910896300638 65.47258158453437 0
334 1 1 1 1 -151.4994150547356 122.5600666808608 0
335 1 1 1 1 -10.98315604677947 -137.337214654586 0
336 1 1 1 1 159.9683543539593 -23.2479632365164 0
337 1 1 1 1 -180.3593764105151 -142.084117951787 0
338 1 1 1 1 -234.9757499897815 51.23191781458615 0
339 1 1 1 1 225.8902489042365 -30.07250011233332 0
340 1 1 1 1 40.75622577303363 26.37422901305797 0
341 1 1 1 1 118.4222886018793 35.37981585497707 0
342 1 1 1 1 77.80962432602723 -114.1630402743502 0
343 1 1 1 1 86.97668763501713 90.69282971844237 0
344 1 1 1 1 81.68737337614073 -81.36558089700992 0
345 1 1 1 1 158.286439057636 120.0116894171199 0
346 1 1 1 1 -44.0095386392162 42.75709245732438 0
347 1 1 1 1 160.9661244363162 39.05093796098731 0
348 1 1 1 1 -103.6426036957395 -128.8848796147322 0
349 1 1 1 1 -231.4629871728907 -79.6018768453936 0
350 1 1 1 1 -200.8458356256653 64.32779926115293 0
351 1 1 1 1 184.5804981711111 -63.17700263347902 0
352 1 1 1 1 174.0050981773488 -1.977827911124223 0
353 1 1 1 1 -18.94658432080578 -48.29402799247086 0
354 1 1 1 1 235.8920182055716 68.95454095956865 0
355 1 1 1 1 116.5667870939981 87.55034784088008 0
356 1 1 1 1 206.4996318925958 141.7490248945671 0
357 1 1 1 1 -12.79909397536184 121.9372390383759 0
358 1 1 1 1 132.9533360412646 22.86641176790189 0
359 1 1 1 1 -79.90600876881453 138.600018006289 0
360 1 1 1 1 103.1738400106584 -45.71525799430013 0
361 1 1 1 1 61.77798259072881 -6.958436202097005 0
362 1 1 1 1 -94.56717530213479 77.87381005505429 0
363 1 1 1 1 -102.395493972153 -21.14028697511418 0
364 1 1 1 1 -107.8972909081015 -39.92535250339792 0
365 1 1 1 1 116.8334137941539 -41.42204511269965 0
366 1 1 1 1 143.900158095854 -93.05387351263253 0
367 1 1 1 1 -30.62109134697312 61.55915083787085 0
368 1 1 1 1 214.7512740452456 92.18116659102213 0
369 1 1 1 1 -163.7731551708496 -28.77342864459258 0
370 1 1 1 1 186.1964108734468 101.9794199310098 0
371 1 1 1 1 -218.1977833924032 -141.9227708765191 0
372 1 1 1 1 -62.59811542622109 -111.3007934130418 0
373 1 1 1 1 157.0492846998073 53.50681249772774 0
374 1 1 1 1 174.4679536101655 -89.95032468563824 0
375 1 1 1 1 192.8700617012053 48.84604529266798 0
376 1 1 1 1 229.6065551458336 45.77722601231005 0
377 1 1 1 1 65.58634992462294 72.61563797788159 0
378 1 1 1 1 159.7903581260798 -42.87344691167307 0
379 1 1 1 1 -55.04130186243648 85.91063685483286 0
380 1 1 1 1 114.6765939578191 59.17024465304976 0
381 1 1 1 1 -96.00314055109874 -44.10124002295518 0
382 1 1 1 1 -193.2115829606046 -76.29358871829686 0
383 1 1 1 1 54.9428312695797 -93.60963058780919 0
384 1 1 1 1 15.93207669660509 80.62989555646979 0
385 1 1 1 1 11.36858070053441 -79.24801578137378 0
386 1 1 1 1 -125.1628570571951 -15.3555587375744 0
387 1 1 1 1 -204.5059921568071 21.80789632697341 0
388 1 1 1 1 -237.5992198470032 141.3454001093476 0
389 1 1 1 1 -135.5356285690523 -42.18015734689824 0
390 1 1 1 1 72.9679301755931 3.539874400753831 0
391 1 1 1 1 -212.0208593585173 59.86322539626195 0
392 1 1 1 1 82.20465987029223 -66.46399934604621 0
393 1 1 1 1 -99.58420836808659 28.90401993423501 0
394 1 1 1 1 -177.613409785274 109.706647762065 0
395 1 1 1 1 162.3120382854568 107.3813046287575 0
396 1 1 1 1 -185.4861170935193 53.61984889944577 0
397 1 1 1 1 125.545801509756 -2.998661957812118 0
398 1 1 1 1 -211.598117773714 -12.76306052145048 0
399 1 1 1 1 67.07341965630468 -116.6133703741008 0
400 1 1 1 1 157.6443031076963 -66.39240560322109 0
401 1 1 1 1 -214.1684226171758 112.678884765625 0
402 1 1 1 1 162.2234061233065 -118.1771071628416 0
403 1 1 1 1 148.1262185657379 45.20534092842544 0
404 1 1 1 1 -9.923572633532075 -42.41817333349211 0
405 1 1 1 1 177.9914278726876 -13.43234007247219 0
406 1 1 1 1 -209.1592837292492 78.59717728525092 0
407 1 1 1 1 18.99019057230845 -35.76766160947111 0
408 1 1 1 1 176.0927253095533 -111.5758209347684 0
409 1 1 1 1 28.70309386985519 111.6535646069836 0
410 1 1 1 1 -30.22954905614586 40.49544852696681 0
411 1 1 1 1 84.49999009809687 124.6729389637392 0
412 1 1 1 1 -136.4894654959945 4.748121571739006 0
413 1 1 1 1 6.70694701905947 107.232666626448 0
414 1 1 1 1 149.5425464624702 -107.0536930677027 0
415 1 1 1 1 51.62384343138183 92.88323898408865 0
416 1 1 1 1 -48.21485998613451 -139.8804511772457 0
417 1 1 1 1 -38.12510962422721 12.25691296565537 0
418 1 1 1 1 -188.404913545121 24.02349786060745 0
419 1 1 1 1 222.3818854533039 141.6150540154592 0
420 1 1 1 1 19.05335574487924 -68.91491586245141 0
421 1 1 1 1 211.1304334149718 37.73345777196681 0
422 1 1 1 1 71.02004197159886 53.78468206806352 0
423 1 1 1 1 95.99991769386168 28.23869657368726 0
424 1 1 1 1 -134.0841637534412 -22.52558256067387 0
425 1 1 1 1 166.5200074398052 85.3380165112485 0
426 1 1 1 1 47.90098911542839 -138.584579139648 0
427 1 1 1 1 219.7155897423348 115.1000474635729 0
428 1 1 1 1 205.3845566497733 86.56111817920194 0
429 1 1 1 1 -37.33259010550069 -21.27922684468791 0
430 1 1 1 1 224.7918742818354 59.98504585774663 0
431 1 1 1 1 86.61641201036389 12.30467482844256 0
432 1 1 1 1 235.3815044937823 93.84701973743734 0
433 1 1 1 1 -65.93435201950675 108.4439891721998 0
434 1 1 1 1 -228.8603488343701 126.4290580145036 0
435 1 1 1 1 -48.17823644045785 14.97797840041679 0
436 1 1 1 1 95.70150585054353 -59.10481013048704 0
437 1 1 1 1 179.7860813478383 123.7072925004652 0
438 1 1 1 1 49.92116410791567 -70.63617726097242 0
439 1 1 1 1 -17.43366534526405 53.69835216643523 0
440 1 1 1 1 167.9403845022006 -126.247656697683 0
441 1 1 1 1 -14.52619094024536 -108.2834379347291 0
442 1 1 1 1 -96.13234596834926 14.88654688527512 0
443 1 1 1 1 59.17854829218192 -81.5389569110832 0
444 1 1 1 1 136.1570568050828 57.85975274468316 0
445 1 1 1 1 97.21833885080866 -92.52543243070599 0
446 1 1 1 1 -183.0761131985138 -78.18687750998312 0
447 1 1 1 1 134.5015053971366 -29.2538535073371 0
448 1 1 1 1 -134.6256920070525 -6.281754148809455 0
449 1 1 1 1 224.7857247548474 -75.49500693848155 0
450 1 1 1 1 209.9787071498624 -43.01189760888511 0
451 1 1 1 1 -80.58254823572227 75.70666749862767 0
452 1 1 1 1 228.2751256258061 131.5202953150694 0
453 1 1 1 1 -125.5694441633956 135.3276052098691 0
454 1 1 1 1 -160.109729626741 -11.65303597186727 0
455 1 1 1 1 -238.671448415859 -122.6510427588755 0
456 1 1 1 1 -192.9615943119069 124.1314255065982 0
457 1 1 1 1 -64.75393181610417 0.2402200194024999 0
458 1 1 1 1 -139.3803580529031 128.8800808106449 0
459 1 1 1 1 -137.1071705005162 141.4479106538374 0
460 1 1 1 1 -115.9779525916676 54.80969318591971 0
461 1 1 1 1 -43.06536050886658 65.38514916419146 0
462 1 1 1 1 -219.897490848729 -92.33097674301163 0
463 1 1 1 1 112.4168858716148 127.0636717634907 0
464 1 1 1 1 109.0255284946798 -60.15818442083037 0
465 1 1 1 1 -156.7294983809408 -35.4293536012419 0
466 1 1 1 1 132.4865435497201 -114.4860815642085 0
467 1 1 1 1 -85.91577393513418 -63.64900385292513 0
468 1 1 1 1 -53.63281244401787 116.8957732225811 0
469 1 1 1 1 -156.7900758341433 92.50596270334313 0
470 1 1 1 1 79.03449703742575 79.9286268736121 0
471 1 1 1 1 -79.24056361425363 -46.65924053355702 0
472 1 1 1 1 -18.38647860453261 36.1862373150893 0
473 1 1 1 1 -180.3919600467839 -45.74123379510758 0
474 1 1 1 1 84.69631572442358 -27.54024344638432 0
475 1 1 1 1 -105.489168506319 42.26457712912986 0
476 1 1 1 1 138.1072406827271 -137.6489382248557 0
477 1 1 1 1 -100.4904636526616 107.9975443102726 0
478 1 1 1 1 -110.3664934746444 28.93969813120913 0
479 1 1 1 1 18.9432027217664 46.60418132477452 0
480 1 1 1 1 -52.11287518603939 28.71774702883295 0
481 1 1 1 1 -79.92642984206785 30.59024052577749 0
482 1 1 1 1 238.9836438322254 51.73774242410485 0
483 1 1 1 1 33.74577035531928 8.723880645473059 0
484 1 1 1 1 -24.68694527106092 91.75862400656266 0
485 1 1 1 1 149.1335901131755 -16.02063901002695 0
486 1 1 1 1 56.76675285384579 47.12397977696355 0
487 1 1 1 1 -41.40912269453412 -66.07801239621384 0
488 1 1 1 1 101.7236154850722 38.23159400426206 0
489 1 1 1 1 174.6121047993787 138.2519641593383 0
490 1 1 1 1 -104.7777691125868 -55.32074369172841 0
491 1 1 1 1 -81.88441500736769 -86.86941151398362 0
492 1 1 1 1 179.1644456186378 93.65805057229443 0
493 1 1 1 1 13.04017119332121 -139.2184930080271 0
494 1 1 1 1 -67.24091476491293 -12.9993962998341 0
495 1 1 1 1 -89.15182735788039 -52.9279941437655 0
496 1 1 1 1 -190.7554248203389 79.50806115485426 0
497 1 1 1 1 -209.1776265553198 92.6030874277659 0
498 1 1 1 1 57.44227790075871 131.5848663573845 0
499 1 1 1 1 31.35946651624249 -7.935813870936926 0
500 1 1 1 1 -106.1840674403151 -11.55654332779849 0
501 1 1 1 1 118.7039395742343 141.3325047475824 0
502 1 1 1 1 56.35725251135443 78.08761932619117 0
503 1 1 1 1 -208.0130914319878 -140.9104648150608 0
504 1 1 1 1 28.66946887642138 56.44650493982883 0
505 1 1 1 1 68.93345679364825 -89.03541220542348 0
506 1 1 1 1 -6.459510410979647 -25.30606799920783 0
507 1 1 1 1 -38.548245868321 -2.436749495632256 0
508 1 1 1 1 218.3948645212717 -105.3564334761107 0
509 1 1 1 1 137.6553762762943 10.40007857762211 0
510 1 1 1 1 26.25259137493487 -95.08687608398738 0
511 1 1 1 1 -21.31576200686817 142.0639178339073 0
512 1 1 1 1 208.7863227632009 -139.705125878568 0
513 1 1 1 1 -91.77218074285582 -89.54823391986909 0
514 1 1 1 1 -34.69143877001909 -109.8782646161358 0
515 1 1 1 1 139.8821174716563 -83.48658795697838 0
516 1 1 1 1 188.2388077092729 -44.20044428568588 0
517 1 1 1 1 101.8066326087359 -0.08329505506543455 0
518 1 1 1 1 190.161067991281 11.29174674399971 0
519 1 1 1 1 -182.3037064819401 95.68796486332459 0
520 1 1 1 1 119.855594964894 72.55168210430327 0
521 1 1 1 1 34.3239924303042 -59.99007854106642 0
522 1 1 1 1 -55.38556103599478 -87.12543002538217 0
523 1 1 1 1 34.68385852042093 -140.0772539675055 0
524 1 1 1 1 23.08202581337827 -54.78831655109374 0
525 1 1 1 1 -135.7625965603317 -72.79270628038071 0
526 1 1 1 1 14.76802446522828 -123.7828103692522 0
527 1 1 1 1 -209.7203295779359 -64.14763812338857 0
528 1 1 1 1 64.51313258482975 104.1385618135043 0
529 1 1 1 1 3.12811302241488 -143.7509057196771 0
530 1 1 1 1 56.34115336061495 -47.25628584545615 0
531 1 1 1 1 -66.84160881478533 45.76272573104563 0
532 1 1 1 1 -181.9781641619032 -67.26858093511072 0
533 1 1 1 1 217.0135503096387 -115.7215240491117 0
534 1 1 1 1 61.10700124040937 -17.00081588347457 0
535 1 1 1 1 179.2170715862399 -50.94231766814326 0
536 1 1 1 1 81.34954812341778 -55.30718672252073 0
537 1 1 1 1 136.3711838454666 -1.077008596881484 0
538 1 1 1 1 -71.19796155057495 96.49363750654277 0
539 1 1 1 1 -180.9712002974411 36.76838192342058 0
540 1 1 1 1 -107.9578160642644 -85.22307763910992 0
541 1 1 1 1 71.83580635336727 -71.18769783178769 0
542 1 1 1 1 179.5756576491527 29.52230271985655 0
543 1 1 1 1 -191.3577494189724 -9.492820014189533 0
544 1 1 1 1 -119.0108867441449 33.87221418693929 0
545 1 1 1 1 205.4384478148838 -63.12744085573615 0
546 1 1 1 1 -138.427480939297 115.1610268451612 0
547 1 1 1 1 103.0514349440013 -130.6912845461855 0
548 1 1 1 1 178.6466864946468 -130.823875269766 0
549 1 1 1 1 197.5258850376625 106.7837851220654 0
550 1 1 1 1 75.36491047544496 92.37692948967896 0
551 1 1 1 1 -151.6455715665106 10.15724828042065 0
552 1 1 1 1 52.67811744367702 -0.3452137486956701 0
553 1 1 1 1 -218.8630131184069 -102.3195296959806 0
554 1 1 1 1 39.39409294736015 -130.0357826622175 0
555 1 1 1 1 50.3772856024961 -21.48254820873098 0
556 1 1 1 1 145.8431819378761 -68.95050642079755 0
557 1 1 1 1 -167.4468586268665 -3.583480357300118 0
558 1 1 1 1 -86.8785781394632 -36.95934560516801 0
559 1 1 1 1 41.96775953187625 -94.16879257649803 0
560 1 1 1 1 194.9163663058968 142.5728107281957 0
561 1 1 1 1 -73.99388108910938 -68.75082662696937 0
562 1 1 1 1 -87.01686898936654 -140.3431035915161 0
563 1 1 1 1 98.23817198445403 -120.5056529592369 0
564 1 1 1 1 -234.733803283855 -17.54022796288714 0
565 1 1 1 1 -122.0560176014644 -127.9025895430504 0
566 1 1 1 1 -106.99309379225 -98.88958319007412 0
567 1 1 1 1 184.6280505794737 115.2687974020513 0
568 1 1 1 1 -7.875798301603794 36.01949983990693 0
569 1 1 1 1 235.9738924228574 -7.933866665378844 0
570 1 1 1 1 -54.17820081351383 -55.24114766862445 0
571 1 1 1 1 -89.20502554237194 22.49986467746359 0
572 1 1 1 1 233.3826079690512 -135.8584509400948 0
573 1 1 1 1 -127.034820910687 47.53049780595927 0
574 1 1 1 1 -176.5276937571535 62.67898780216584 0
575 1 1 1 1 224.6036969745822 22.78399280912433 0
576 1 1 1 1 -2.71056523716976 -49.02344070898823 0
577 1 1 1 1 46.53074874410646 71.4812736691714 0
578 1 1 1 1 -87.39960372560219 113.1293524900926 0
579 1 1 1 1 -143.161005287427 82.95812198630469 0
580 1 1 1 1 172.9344453061911 104.6283149985417 0
581 1 1 1 1 179.9596746293932 -75.13688896452189 0
582 1 1 1 1 168.4835910985976 54.61591754098563 0
583 1 1 1 1 -8.297734925700752 105.4443457075303 0
584 1 1 1 1 31.32987440119541 -83.96197037901132 0
585 1 1 1 1 -93.1732869991732 -75.15621599153889 0
586 1 1 1 1 196.1759654192509 -89.01239353873305 0
587 1 1 1 1 237.4165889631158 -69.34336641882473 0
588 1 1 1 1 -26.3698508923253 8.928359382192212 0
589 1 1 1 1 -94.02659695753289 -127.5684256820366 0
590 1 1 1 1 -53.03215396954582 46.82112090008775 0