

8601 atoms
21204 bonds
1 atom types
1 bond types
-1008 1008 xlo xhi
-604.8 604.8 ylo yhi
-32 32 zlo zhi

Atoms #bpm/sphere

1 1 1 1 1 689.4079287757502 -498.2959703839018 0
2 1 1 1 1 -305.581643646581 -507.8694825703657 0
3 1 1 1 1 -445.7234317139983 105.7303663581494 0
4 1 1 1 1 966.2781095565399 279.0903916202983 0
5 1 1 1 1 366.0832954976553 513.3269767026891 0
6 1 1 1 1 -860.9261628842463 51.7372677970732 0
7 1 1 1 1 147.6603146300987 222.1665530346367 0
8 1 1 1 1 660.0415075615745 179.7976219539653 0
9 1 1 1 1 -913.0702565130536 432.8551619148753 0
10 1 1 1 1 -66.51714271756207 -44.98049633511815 0
11 1 1 1 1 86.20362645831885 -328.01949968375 0
12 1 1 1 1 812.172677221292 195.5575704870967 0
13 1 1 1 1 575.4817084895774 -585.0835804225274 0
14 1 1 1 1 -517.8318753440991 252.1369167024273 0
15 1 1 1 1 -458.2750623570235 -259.3712760610777 0
16 1 1 1 1 -226.5823452826321 435.706251404933 0
17 1 1 1 1 933.1463707558479 -262.3145328326944 0
18 1 1 1 1 -42.44484198532118 -457.5975596991603 0
19 1 1 1 1 -567.3502927351215 -50.47513142860726 0
20 1 1 1 1 -612.8005692875227 -459.0134902613912 0
21 1 1 1 1 -478.8513268029068 357.4110353261924 0
22 1 1 1 1 -241.2703134562131 187.6893563087182 0
23 1 1 1 1 -440.3988686407106 -358.8814388544172 0
24 1 1 1 1 -826.3206695930815 441.7628581558461 0
25 1 1 1 1 41.20804314914928 -507.8245673210874 0
26 1 1 1 1 973.8263353288248 -222.3406654698455 0
27 1 1 1 1 442.644858332219 -191.7358090051525 0
28 1 1 1 1 424.809629022264 -215.8483966999157 0
29 1 1 1 1 -437.3153067718151 -28.53649321038697 0
30 1 1 1 1 403.6870597619762 567.3526514342785 0
31 1 1 1 1 307.5929426886336 -553.4978534923952 0
32 1 1 1 1 716.8270713820031 443.5178196341386 0
33 1 1 1 1 548.3252401313221 -366.0197415049059 0
34 1 1 1 1 -622.4418586654043 500.7907363828522 0
35 1 1 1 1 702.2971745652269 533.3950014097802 0
36 1 1 1 1 -410.295390924025 -90.56554295779367 0
37 1 1 1 1 -98.46415405086299 125.7176779136328 0
38 1 1 1 1 452.0972669932361 -336.3892078070587 0
39 1 1 1 1 335.5941574129641 472.0479702304203 0
40 1 1 1 1 -936.6210840468871 482.7668124759952 0
41 1 1 1 1 -98.54194006730279 548.9825422132595 0
42 1 1 1 1 -209.6724886312996 -589.202847000004 0
43 1 1 1 1 129.2638939913706 -471.2512231163547 0
44 1 1 1 1 544.5674507473985 -11.88076784032128 0
45 1 1 1 1 -904.6023063083502 -517.1515715283542 0
46 1 1 1 1 84.34471104449507 425.5904912214664 0
47 1 1 1 1 179.0001388445672 272.5027456770748 0
48 1 1 1 1 405.6536120971757 181.3713110987987 0
49 1 1 1 1 764.1509577708191 223.3974876490629 0
50 1 1 1 1 -247.2725514522912 -162.4413508739112 0
51 1 1 1 1 -551.8046654883478 -460.5247736393848 0
52 1 1 1 1 -356.390986542379 -244.8018864448572 0
53 1 1 1 1 533.227050456844 -543.1057400085341 0
54 1 1 1 1 -828.2992662844678 -309.3482541539808 0
55 1 1 1 1 236.1845205736188 -456.6517095400997 0
56 1 1 1 1 -329.3338095884801 -73.08145301896801 0
57 1 1 1 1 -484.9331833206629 -512.5303057627904 0
58 1 1 1 1 408.4822565801301 -278.5679580799037 0
59 1 1 1 1 -349.1522656844916 -160.0905609369965 0
60 1 1 1 1 727.6683161756823 316.6904019585676 0
61 1 1 1 1 957.6747865617134 572.1043034437577 0
62 1 1 1 1 345.3235824945072 175.403110847515 0
63 1 1 1 1 -568.9108273825457 -90.25267721745249 0
64 1 1 1 1 752.6368293104088 -433.8575706154855 0
65 1 1 1 1 453.047817615838 -581.9944040068959 0
66 1 1 1 1 66.58537887706306 -597.6564658335834 0
67 1 1 1 1 773.6996627512162 255.5851730492176 0
68 1 1 1 1 480.32246693142 378.1680526436364 0
69 1 1 1 1 182.3857270673971 -395.6023005724072 0
70 1 1 1 1 -897.0524758611261 -348.4983175634113 0
71 1 1 1 1 -813.3582573887086 7.431963713761081 0
72 1 1 1 1 69.78034898714407 585.7927319161099 0
73 1 1 1 1 327.9478924453603 113.4363930413278 0
74 1 1 1 1 -931.6102803355368 -510.0136109656952 0
75 1 1 1 1 858.6134447858379 581.2205656455255 0
76 1 1 1 1 -114.9909023260945 241.2535902896006 0
77 1 1 1 1 -70.14506058447209 288.6681975021877 0
78 1 1 1 1 -684.5445719473802 327.1450212734127 0
79 1 1 1 1 -474.2813212156587 142.1998429817602 0
80 1 1 1 1 1007.725806685764 492.9995186661777 0
81 1 1 1 1 146.0693646700094 -521.9019095861003 0
82 1 1 1 1 248.3357182175631 -308.7489874507866 0
83 1 1 1 1 732.8374281628965 -121.9371325404143 0
84 1 1 1 1 475.9628829764411 407.6078760056467 0
85 1 1 1 1 -545.0310906429454 315.73993441842 0
86 1 1 1 1 784.2698384994516 133.3473518149362 0
87 1 1 1 1 183.6440553529436 155.843901344745 0
88 1 1 1 1 505.9231007868266 -559.640422906145 0
89 1 1 1 1 -550.6951463621856 -228.7176418766425 0
90 1 1 1 1 -808.6409179344889 -260.2637768311338 0
91 1 1 1 1 -65.2812421765293 -589.5762470791791 0
92 1 1 1 1 528.8712643948976 -66.03045119274253 0
93 1 1 1 1 -317.5372352988981 266.5885743213441 0
94 1 1 1 1 -164.6091863165345 371.9732087907496 0
95 1 1 1 1 -859.1659841336177 229.8978613058474 0
96 1 1 1 1 -646.4211503074316 -166.4787602583095 0
97 1 1 1 1 -598.8934770815934 54.88492723108976 0
98 1 1 1 1 -713.3608326349482 140.6757295377759 0
99 1 1 1 1 304.0109836546483 256.5513400447629 0
100 1 1 1 1 943.3651476921997 522.0077123295705 0
101 1 1 1 1 -371.8432503314875 -252.7872110133793 0
102 1 1 1 1 47.23775767443016 -541.7662620276331 0
103 1 1 1 1 -610.8849651558021 -371.4919380973081 0
104 1 1 1 1 558.6953842290554 433.3108352525658 0
105 1 1 1 1 887.8066574707093 -256.4200718537079 0
106 1 1 1 1 -60.30253682513266 -568.5094258939774 0
107 1 1 1 1 87.58531404708776 388.6468549819704 0
108 1 1 1 1 -26.29410663069746 -301.6404370986244 0
109 1 1 1 1 568.0754921836656 -64.19909597968099 0
110 1 1 1 1 161.3599012608756 -588.3636918374672 0
111 1 1 1 1 209.7715881920955 169.1012644603823 0
112 1 1 1 1 -588.2397152264433 -284.6020707709313 0
113 1 1 1 1 255.355955661537 45.22927716101458 0
114 1 1 1 1 -603.3967773667974 302.3549940640572 0
115 1 1 1 1 477.7852758153144 439.0131469788922 0
116 1 1 1 1 643.2482318593818 74.43942754373494 0
117 1 1 1 1 -428.4536703688013 157.5537515736567 0
118 1 1 1 1 -359.1304946978686 -547.2776503577969 0
119 1 1 1 1 744.9950051033254 351.1014608387882 0
120 1 1 1 1 -693.0376348932205 -131.8006789909123 0
121 1 1 1 1 -650.5152188668793 453.9912310299192 0
122 1 1 1 1 -511.2397491956843 -300.7844300267544 0
123 1 1 1 1 -615.9225272555917 30.11746547985829 0
124 1 1 1 1 -182.1180731055019 359.6147367546215 0
125 1 1 1 1 -621.6138901031214 149.6658776416516 0
126 1 1 1 1 -812.0353907626671 560.1953986405424 0
127 1 1 1 1 -965.9655132588442 -414.6542788098355 0
128 1 1 1 1 -997.6188354056775 -3.281724212722327 0
129 1 1 1 1 363.0478111729622 313.281227444991 0
130 1 1 1 1 -850.6563329894302 -29.61967117165768 0
131 1 1 1 1 887.6499259464512 181.916087689085 0
132 1 1 1 1 440.4018391798061 -112.7004075121909 0
133 1 1 1 1 -668.2005640708293 -464.0903306810307 0
134 1 1 1 1 -386.0437509446442 -82.75035758697341 0
135 1 1 1 1 733.7619846908198 -9.869668255812131 0
136 1 1 1 1 -72.02270453250151 -502.9757632361116 0
137 1 1 1 1 -149.2983950977353 -510.192688721877 0
138 1 1 1 1 -432.1843565368815 -462.6494268698548 0
139 1 1 1 1 64.13220686675479 259.8222663495408 0
140 1 1 1 1 43.17590395068373 -61.84144853060444 0
141 1 1 1 1 996.7898454954369 -195.431358440552 0
142 1 1 1 1 506.0163568979284 3.995650311206395 0
143 1 1 1 1 970.3849771385618 -151.4958823653799 0
144 1 1 1 1 -359.2866369572923 269.7607922555122 0
145 1 1 1 1 -110.5852001196316 604.2897422456705 0
146 1 1 1 1 -353.0154972418578 347.8862183773952 0
147 1 1 1 1 -183.2854573848704 318.9381374597762 0
148 1 1 1 1 -736.1472489639045 -576.4576876741115 0
149 1 1 1 1 283.1188744954787 -549.0153106248407 0
150 1 1 1 1 -578.1965434347558 -59.80721003438991 0
151 1 1 1 1 -447.695632209129 -124.7185825981483 0
152 1 1 1 1 -677.8369129174727 -560.927325508939 0
153 1 1 1 1 173.7903525389251 -603.0714513878176 0
154 1 1 1 1 -753.3339265570726 -492.4465770878024 0
155 1 1 1 1 -529.4519349475593 -506.1955216429035 0
156 1 1 1 1 -858.8712970075474 253.1352493006425 0
157 1 1 1 1 -587.7829363686406 462.4399643877228 0
158 1 1 1 1 -140.8353690752469 -468.6288817760745 0
159 1 1 1 1 646.7797833791382 -360.4015066988414 0
160 1 1 1 1 911.6417997390155 -133.4866796245644 0
161 1 1 1 1 -265.8975420756192 -460.6732281641437 0
162 1 1 1 1 -627.4940705209037 -94.77780161286586 0
163 1 1 1 1 200.2251597780853 -353.748910165489 0
164 1 1 1 1 -423.4219758212509 -352.9091100693444 0
165 1 1 1 1 -749.6772143030976 -446.9375820614154 0
166 1 1 1 1 -412.4814859426422 -28.13386742870696 0
167 1 1 1 1 -523.0760479042441 21.2799939299022 0
168 1 1 1 1 -890.1971066552201 214.1396244314466 0
169 1 1 1 1 396.893318544518 -366.0671785012735 0
170 1 1 1 1 514.7944689913664 399.8531938572945 0
171 1 1 1 1 375.3628674434005 -232.7922211573336 0
172 1 1 1 1 708.8558312209785 247.6624844738066 0
173 1 1 1 1 -628.706678805682 363.1907820036694 0
174 1 1 1 1 -733.5625012871958 -184.1400172279762 0
175 1 1 1 1 99.43906496862168 -194.6589791875905 0
176 1 1 1 1 -299.1232321767425 262.6977612171651 0
177 1 1 1 1 -378.0271657601028 127.3931867591217 0
178 1 1 1 1 -461.5915403812012 -480.237082589823 0
179 1 1 1 1 -725.1242633410631 -552.6673608885276 0
180 1 1 1 1 327.1116015741925 257.3356848776837 0
181 1 1 1 1 670.960033983901 -403.080999252741 0
182 1 1 1 1 68.82954156777875 210.2308100743315 0
183 1 1 1 1 -368.4706686926866 -126.2290099917223 0
184 1 1 1 1 641.8882380725795 -424.9785717454182 0
185 1 1 1 1 -383.2131212365221 582.686380601713 0
186 1 1 1 1 -26.48890905520213 -27.70446569751297 0
187 1 1 1 1 -786.8795646611929 170.1482143963552 0
188 1 1 1 1 187.2662444277797 -64.48892166029371 0
189 1 1 1 1 -81.02779488768485 297.1790335488235 0
190 1 1 1 1 468.508300074915 -540.1625932275751 0
191 1 1 1 1 -258.8692425347732 -124.1746451949769 0
192 1 1 1 1 -921.2941277737599 216.7930162571365 0
193 1 1 1 1 -682.3712813460346 -487.6467471277858 0
194 1 1 1 1 289.4832018062693 121.6488539980505 0
195 1 1 1 1 -594.3131710411493 386.7241849815204 0
196 1 1 1 1 -268.1336543451873 250.0902897135921 0
197 1 1 1 1 109.7422830030427 -35.57461786010299 0
198 1 1 1 1 894.4879043587932 590.3037200124347 0
199 1 1 1 1 828.9673154231422 450.316496628261 0
200 1 1 1 1 947.2484279418014 -508.8717108191393 0
201 1 1 1 1 311.7337625200906 -536.1880837170771 0
202 1 1 1 1 783.6486666021851 31.69458835229485 0
203 1 1 1 1 967.1157011355326 431.659943291186 0
204 1 1 1 1 579.6689255361748 194.0366324260477 0
205 1 1 1 1 71.94959029689912 -198.4689099804449 0
206 1 1 1 1 881.4590673847413 -416.381306682305 0
207 1 1 1 1 856.0383733734408 482.597470024905 0
208 1 1 1 1 -421.1489268611157 -258.7416623709407 0
209 1 1 1 1 323.3205939208659 491.3948344894826 0
210 1 1 1 1 685.8561336923268 444.5312881143576 0
211 1 1 1 1 581.0870755072853 49.14647821540151 0
212 1 1 1 1 554.106089097018 -244.0419455504294 0
213 1 1 1 1 -446.9306619851016 -417.1384280389843 0
214 1 1 1 1 -309.3278967050946 189.9838158231983 0
215 1 1 1 1 -132.123060221181 -440.2184603732289 0
216 1 1 1 1 -87.11555976560311 529.3676513754248 0
217 1 1 1 1 -834.8861733636198 107.8330997612179 0
218 1 1 1 1 -321.1717905915813 -356.1940109592301 0
219 1 1 1 1 605.7436961008001 -104.860315429043 0
220 1 1 1 1 235.2921824252813 429.246432856902 0
221 1 1 1 1 -644.2929647131114 491.0770816453256 0
222 1 1 1 1 -943.8781997705336 -232.0861808805439 0
223 1 1 1 1 -215.6417179494066 -111.8711495540301 0
224 1 1 1 1 225.4872373189756 -573.0215330493794 0
225 1 1 1 1 -288.1066997487812 -553.2179725723989 0
226 1 1 1 1 839.9284588598983 9.370994278367469 0
227 1 1 1 1 -391.8286576610822 548.5989873161783 0
228 1 1 1 1 -104.9406517403396 581.6895201807114 0
229 1 1 1 1 599.0113673467257 510.3547765147292 0
230 1 1 1 1 630.9879391560478 -602.6981382406569 0
231 1 1 1 1 -493.6854494134273 -441.8177764466702 0
232 1 1 1 1 -195.3941457244556 -305.0919656301649 0
233 1 1 1 1 -979.3870938847856 520.9883759066044 0
234 1 1 1 1 602.9447227854396 -272.1273256652395 0
235 1 1 1 1 804.3453818661574 -207.1114494186555 0
236 1 1 1 1 -319.2135933030086 219.1170050357927 0
237 1 1 1 1 877.6679316748052 348.1370999640799 0
238 1 1 1 1 -773.3817455365912 24.10771270492309 0
239 1 1 1 1 469.0186022894587 -578.635012392167 0
240 1 1 1 1 503.5811749349636 -469.6062513861773 0
241 1 1 1 1 -698.9246821941424 575.9349371935468 0
242 1 1 1 1 547.3527313186515 451.5020035718889 0
243 1 1 1 1 437.6740930732346 -495.3966344200693 0
244 1 1 1 1 -784.6747826683125 -408.4361074459475 0
245 1 1 1 1 -26.12624643989484 -55.25037413323605 0
246 1 1 1 1 246.696191540438 -434.1844272389808 0
247 1 1 1 1 233.6520190977804 140.9063313198246 0
248 1 1 1 1 288.5728626821961 -335.7455359064468 0
249 1 1 1 1 734.1382266687756 18.50410873011902 0
250 1 1 1 1 -22.85710760959678 -328.8910967686149 0
251 1 1 1 1 -335.9014853802908 -449.7872737576672 0
252 1 1 1 1 -224.7327618002091 -146.3338033239633 0
253 1 1 1 1 758.7049839811979 -554.9337613793742 0
254 1 1 1 1 -846.2756600541599 542.9441881780996 0
255 1 1 1 1 19.6330912023292 -482.7693866829878 0
256 1 1 1 1 141.6534408688288 419.2178606308194 0
257 1 1 1 1 932.2638610833351 -582.6081928553258 0
258 1 1 1 1 -167.9344720681261 -171.7584177291753 0
259 1 1 1 1 797.1500183641293 272.6610460278303 0
260 1 1 1 1 744.0464010319538 84.81014229808162 0
261 1 1 1 1 485.9532449993906 325.6308781983659 0
262 1 1 1 1 -529.0660675132992 -77.26928316382124 0
263 1 1 1 1 -147.9161868116088 536.8403949283929 0
264 1 1 1 1 -326.2318456347788 22.05826623595599 0
265 1 1 1 1 -656.141437799756 -559.8816958643739 0
266 1 1 1 1 -886.9730293385298 177.1961174207524 0
267 1 1 1 1 -292.226201581661 361.9533164565554 0
268 1 1 1 1 557.8449176555959 -549.0205488636912 0
269 1 1 1 1 -355.4853969261849 380.255642908398 0
270 1 1 1 1 -746.6445333409162 135.0056527378283 0
271 1 1 1 1 439.1893681640256 -164.8425576224413 0
272 1 1 1 1 805.1767292318531 493.7760348122791 0
273 1 1 1 1 450.8047998875916 -384.5588474858252 0
274 1 1 1 1 594.0506918774612 319.210673677635 0
275 1 1 1 1 87.65907485869677 287.0329366558681 0
276 1 1 1 1 868.7479020988462 -53.07377531681204 0
277 1 1 1 1 133.4180582543401 -307.5612690566342 0
278 1 1 1 1 -868.3875811938448 -330.906491494524 0
279 1 1 1 1 528.8349726497064 -469.8657355299439 0
280 1 1 1 1 683.9287626329704 -231.6550357189288 0
281 1 1 1 1 -630.5257378224055 -205.0882308468704 0
282 1 1 1 1 -736.1253587180273 31.32041117457543 0
283 1 1 1 1 -370.3810186661985 50.17427243763235 0
284 1 1 1 1 -866.3795359967041 -307.4098567128993 0
285 1 1 1 1 -857.2353948122433 -119.3174182378145 0
286 1 1 1 1 45.44928337395706 589.031043658479 0
287 1 1 1 1 -902.9972694538749 578.7998291907423 0
288 1 1 1 1 -171.2558001611405 -258.6909891942743 0
289 1 1 1 1 -554.5680467241903 418.0788750563117 0
290 1 1 1 1 -481.063954676157 38.89636464903563 0
291 1 1 1 1 -217.3450357486069 326.1897564022823 0
292 1 1 1 1 306.3144937513209 221.4417988452605 0
293 1 1 1 1 -388.2125103427093 -398.0868723029341 0
294 1 1 1 1 -1001.561409903535 283.1128895621001 0
295 1 1 1 1 -683.0162052243937 -355.3553680219227 0
296 1 1 1 1 -385.3829974179278 502.9852523286872 0
297 1 1 1 1 -110.7173998780781 -171.6205572659977 0
298 1 1 1 1 792.517629598608 -462.8615289756539 0
299 1 1 1 1 512.7535594189289 347.8729542349681 0
300 1 1 1 1 799.3138628782484 -137.953550208094 0
301 1 1 1 1 745.0834919754034 -553.6578220831925 0
302 1 1 1 1 913.7721629892639 -182.1373591283513 0
303 1 1 1 1 -902.2788468528295 -164.4050774816029 0
304 1 1 1 1 -552.6436293075259 -243.3657917705189 0
305 1 1 1 1 -474.9189502833855 -218.3989055319595 0
306 1 1 1 1 -52.37317078034471 19.39376510213829 0
307 1 1 1 1 704.2774983078302 -402.6223336293592 0
308 1 1 1 1 345.627611570345 531.5565175809375 0
309 1 1 1 1 -402.7490125406831 199.5551464202366 0
310 1 1 1 1 466.0402748627308 138.9290428097035 0
311 1 1 1 1 -280.5781229188189 283.1077004501105 0
312 1 1 1 1 286.2682481050833 -322.3998533711192 0
313 1 1 1 1 190.0850037350718 -100.0749979389036 0
314 1 1 1 1 173.0072435296776 390.9610439614997 0
315 1 1 1 1 -264.1792706403318 -193.7951738411235 0
316 1 1 1 1 -508.1654255925014 241.7230533219916 0
317 1 1 1 1 -803.5419781323119 -103.3109562149648 0
318 1 1 1 1 310.4310926822994 429.9586616078667 0
319 1 1 1 1 667.4181503819714 193.4396138535987 0
320 1 1 1 1 -991.8211279027105 -168.2793852059256 0
321 1 1 1 1 -191.138113179318 41.13425034955431 0
322 1 1 1 1 -916.0857092551144 234.4407863260923 0
323 1 1 1 1 796.5347412847265 514.277559817676 0
324 1 1 1 1 -667.6129875867878 434.0953750766988 0
325 1 1 1 1 -233.5401575015554 203.5662388572494 0
326 1 1 1 1 1000.815038909354 -351.1987631924369 0
327 1 1 1 1 302.7724346282847 -81.57274665326514 0
328 1 1 1 1 -360.918280650131 488.7150070947936 0
329 1 1 1 1 -856.5553277335846 452.306203650942 0
330 1 1 1 1 -833.4266601884782 129.3492108069786 0
331 1 1 1 1 -545.1134425822827 277.597818079613 0
332 1 1 1 1 -344.0124463344181 228.8214004935527 0
333 1 1 1 1 949.1180395518306 19.95365394563256 0
334 1 1 1 1 -91.27509058078996 -383.1424664847612 0
335 1 1 1 1 -887.1486272373907 520.1201236954649 0
336 1 1 1 1 -626.2306815408132 -126.5275576900071 0
337 1 1 1 1 723.1655015201245 -194.6060104174753 0
338 1 1 1 1 279.5240695997681 -199.9425579926753 0
339 1 1 1 1 805.6489597762607 215.1199354579812 0
340 1 1 1 1 -888.0355331747857 -160.4618864557114 0
341 1 1 1 1 -655.2763422413894 47.9344573616192 0
342 1 1 1 1 -986.5793021799824 -503.7884179175431 0
343 1 1 1 1 236.8751935899674 498.242333428045 0
344 1 1 1 1 424.5323688261243 -477.2386723288027 0
345 1 1 1 1 973.1868980689809 -604.2098669077793 0
346 1 1 1 1 353.733493817851 -67.94197552635885 0
347 1 1 1 1 229.1796348419134 -36.77511624619567 0
348 1 1 1 1 223.0790700462379 -472.0237318621848 0
349 1 1 1 1 -55.59471312005773 -485.4765689337998 0
350 1 1 1 1 145.987991043967 601.4660062583902 0
351 1 1 1 1 293.1893496844585 -405.8397077529334 0
352 1 1 1 1 673.1337339496963 -68.01426228581556 0
353 1 1 1 1 896.3644052185028 -520.1155258755949 0
354 1 1 1 1 -748.2844429701843 546.789632290961 0
355 1 1 1 1 48.96407740701741 -46.43584228556165 0
356 1 1 1 1 -254.7708673825389 494.1258860956105 0
357 1 1 1 1 712.4730557461849 -329.1961754985437 0
358 1 1 1 1 34.48925351905538 -231.6611374458415 0
359 1 1 1 1 -398.9892481164081 563.7895426321591 0
360 1 1 1 1 712.3533945582304 275.5408865173716 0
361 1 1 1 1 504.5569630203888 -233.6257895856951 0
362 1 1 1 1 -117.9981546167426 478.9710660040922 0
363 1 1 1 1 -742.7912944153462 318.3147721585621 0
364 1 1 1 1 -814.5468905316963 -515.5064802321243 0
365 1 1 1 1 275.5257604001076 173.2866888536945 0
366 1 1 1 1 -557.5526432469826 587.5567202752717 0
367 1 1 1 1 -808.5944453588128 371.7906406640246 0
368 1 1 1 1 -368.7562016717673 35.37571322871199 0
369 1 1 1 1 -454.7772790968784 301.4060859672438 0
370 1 1 1 1 -716.475223545099 208.9327515328232 0
371 1 1 1 1 -258.8164678879284 -390.5907088217739 0
372 1 1 1 1 -968.1520030541026 -86.09868853400172 0
373 1 1 1 1 -212.4578822506866 574.9487968378945 0
374 1 1 1 1 298.5745649796104 176.0844198268378 0
375 1 1 1 1 -540.5929967568628 494.5485362607889 0
376 1 1 1 1 -101.8355148426559 318.8858544675214 0
377 1 1 1 1 -672.8544487801873 -55.43354013516463 0
378 1 1 1 1 -314.5674185029604 472.1692631052059 0
379 1 1 1 1 -761.6121949206987 -275.3355551522288 0
380 1 1 1 1 -768.8352734486077 332.8011034992494 0
381 1 1 1 1 88.50094367538475 -248.6148668319655 0
382 1 1 1 1 -384.6328962110001 65.98595834573108 0
383 1 1 1 1 928.2723280760745 -345.8322563413533 0
384 1 1 1 1 304.9250075671671 577.9132404058769 0
385 1 1 1 1 -489.959954159002 -551.3695398602363 0
386 1 1 1 1 -31.23064342278996 236.2222094050712 0
387 1 1 1 1 -256.493666727428 -361.0413700229005 0
388 1 1 1 1 517.2459563677959 263.1115847532253 0
389 1 1 1 1 -618.378858940569 171.2846919639669 0
390 1 1 1 1 439.4901194739891 68.20644829574324 0
391 1 1 1 1 131.4856739115458 -99.18618855669688 0
392 1 1 1 1 -235.3911672770279 71.57404028666404 0
393 1 1 1 1 312.5055931298478 -239.4804208628309 0
394 1 1 1 1 -319.5028488872798 -588.9498772748854 0
395 1 1 1 1 818.9577211031428 180.7438277019771 0
396 1 1 1 1 -478.0117622118974 -304.3571302158681 0
397 1 1 1 1 390.7157481008959 373.2468944165657 0
398 1 1 1 1 -143.9478217972348 -372.0768095936307 0
399 1 1 1 1 259.6095350059615 -394.030122114202 0
400 1 1 1 1 729.2244816637387 -457.4488728279354 0
401 1 1 1 1 -89.37132753043247 -244.5258552752633 0
402 1 1 1 1 -955.7278857748843 480.1647763473567 0
403 1 1 1 1 -758.9033322276384 -295.4662902220413 0
404 1 1 1 1 590.2951711666537 235.403245153267 0
405 1 1 1 1 229.6698479320611 102.8821692771745 0
406 1 1 1 1 711.495924768717 88.7911059630901 0
407 1 1 1 1 -700.8092632993534 -599.517576901529 0
408 1 1 1 1 -252.6166164930744 -307.8686369061009 0
409 1 1 1 1 283.4128963771344 8.163939582156944 0
410 1 1 1 1 -22.71379466172195 38.47519511937799 0
411 1 1 1 1 788.7047319889642 76.82365877197933 0
412 1 1 1 1 -945.9740533121384 -383.1890662225067 0
413 1 1 1 1 847.631630278996 203.0550897359005 0
414 1 1 1 1 875.5836211782214 -7.918069289039556 0
415 1 1 1 1 -268.4008184308563 562.900319537948 0
416 1 1 1 1 -898.7647821186274 -390.7006714622827 0
417 1 1 1 1 -742.1858595108791 293.312256481162 0
418 1 1 1 1 -339.3332606029904 -377.7824855221036 0
419 1 1 1 1 806.1123795931245 -189.2319984564711 0
420 1 1 1 1 9.393482408760905 -389.5102461056393 0
421 1 1 1 1 668.8858914342807 -283.5835898752792 0
422 1 1 1 1 -841.7212559967546 -5.115112958003624 0
423 1 1 1 1 -780.8160820118109 419.7564048491207 0
424 1 1 1 1 883.5801754608583 60.32889493187169 0
425 1 1 1 1 -331.3278718224771 -148.2441013694895 0
426 1 1 1 1 157.4793568760673 -393.31308167495 0
427 1 1 1 1 -126.4633899983411 -130.5423490005592 0
428 1 1 1 1 279.6685265249457 -598.3705688417944 0
429 1 1 1 1 -303.639244265338 400.8614957489419 0
430 1 1 1 1 307.0665115064434 -479.4954981769178 0
431 1 1 1 1 803.4993441584762 -241.0748874680379 0
432 1 1 1 1 55.07334549121328 34.74127852661101 0
433 1 1 1 1 988.6296770392647 602.0515516239045 0
434 1 1 1 1 334.9739121673421 350.8473071795522 0
435 1 1 1 1 -997.0706305082719 -596.4038738758291 0
436 1 1 1 1 -508.8732339701081 594.7882069728963 0
437 1 1 1 1 -413.8609618794164 -337.0350144382765 0
438 1 1 1 1 683.9692464395381 -290.1220202687083 0
439 1 1 1 1 886.8048924314616 -203.4758099038766 0
440 1 1 1 1 75.0292168709849 -533.6160799739873 0
441 1 1 1 1 -596.0603557749487 163.7954540878743 0
442 1 1 1 1 283.0079636557579 -178.8524747023542 0
443 1 1 1 1 518.566165998258 -410.9343028888378 0
444 1 1 1 1 -341.0318907553549 59.31908865304336 0
445 1 1 1 1 -271.0824290229999 17.59539205686566 0
446 1 1 1 1 -57.59454271347742 523.0646298851989 0
447 1 1 1 1 -542.4852735724567 455.9266825182448 0
448 1 1 1 1 567.6992132359785 38.32491490484969 0
449 1 1 1 1 87.45966129331484 -355.053094120211 0
450 1 1 1 1 -314.7943454913269 549.5629685708983 0
451 1 1 1 1 798.4433956499166 478.94912510635 0
452 1 1 1 1 -921.9790446073114 73.14157727336816 0
453 1 1 1 1 -596.6368340185624 555.6618308480139 0
454 1 1 1 1 374.9056686261288 125.2474266378216 0
455 1 1 1 1 972.6828495427449 -321.6277785878242 0
456 1 1 1 1 324.0898601583484 -406.5809477160009 0
457 1 1 1 1 647.0254889797869 -90.7912509315625 0
458 1 1 1 1 683.7331560981966 -467.9442288017 0
459 1 1 1 1 731.9550618441833 594.0875268520927 0
460 1 1 1 1 -529.4330699211148 565.3773676981803 0
461 1 1 1 1 -399.2583609686084 410.7173755709472 0
462 1 1 1 1 105.2583626190859 -248.105000938379 0
463 1 1 1 1 201.8776989567387 -531.8867263614316 0
464 1 1 1 1 336.4842601826001 44.81437105971949 0
465 1 1 1 1 154.6589549353165 471.3163991812175 0
466 1 1 1 1 -845.6050806412651 -503.8286006869726 0
467 1 1 1 1 -209.2242403827943 -270.8873529572913 0
468 1 1 1 1 -607.7402826050407 -229.7175935178527 0
469 1 1 1 1 -34.59623939767145 373.7465651404826 0
470 1 1 1 1 -863.4975981627856 102.9671024610022 0
471 1 1 1 1 685.8721371643148 132.2632506286317 0
472 1 1 1 1 -704.7510017263885 506.3726970292137 0
473 1 1 1 1 -306.961765755237 -147.8418191430581 0
474 1 1 1 1 -375.1943135171229 -49.2223323461912 0
475 1 1 1 1 -605.3357450234025 598.3385527075029 0
476 1 1 1 1 89.85838297936596 -453.6568945259087 0
477 1 1 1 1 -492.1360781191669 526.0042955561586 0
478 1 1 1 1 511.5079604811813 539.5110966898147 0
479 1 1 1 1 -609.6072601051073 352.1225809904831 0
480 1 1 1 1 787.0176786635594 -498.5184480373675 0
481 1 1 1 1 767.5501502493352 190.0655674338578 0
482 1 1 1 1 -858.7542808920275 -252.446105112953 0
483 1 1 1 1 -111.3559214670399 429.0962341085112 0
484 1 1 1 1 -100.7061018077367 -346.4152242435465 0
485 1 1 1 1 -90.9517385067884 -260.980074936384 0
486 1 1 1 1 -750.7115656015848 -198.867308284922 0
487 1 1 1 1 602.9728028172924 554.3302874474389 0
488 1 1 1 1 768.7576642169584 553.4048711922012 0
489 1 1 1 1 746.8040994659443 552.1181800907407 0
490 1 1 1 1 302.0454222808176 44.44803096653363 0
491 1 1 1 1 -540.4520671109885 -140.1440949750819 0
492 1 1 1 1 -43.96577715124583 140.664441900634 0
493 1 1 1 1 -520.8246773141888 -487.7354003274504 0
494 1 1 1 1 49.44119943899986 -448.9036704947942 0
495 1 1 1 1 -872.8526519078087 -482.4931662288291 0
496 1 1 1 1 677.2761947352763 316.5997989416719 0
497 1 1 1 1 235.864149707809 209.3709300448273 0
498 1 1 1 1 464.4661848839699 -430.8949389065448 0
499 1 1 1 1 -783.2000569439224 -348.4150678827509 0
500 1 1 1 1 117.152231129119 -347.9083030263574 0
501 1 1 1 1 -905.7887534764533 90.01765541425615 0
502 1 1 1 1 -399.888237126629 -507.0135460444998 0
503 1 1 1 1 -919.7373779709562 -82.1630494350587 0
504 1 1 1 1 -498.9703079003447 538.6907494620474 0
505 1 1 1 1 862.5297507987987 -27.93965582261681 0
506 1 1 1 1 -376.9731901968208 -1.681920067431236 0
507 1 1 1 1 838.3544348925826 534.0655029794 0
508 1 1 1 1 -650.4174654565973 31.09030244041322 0
509 1 1 1 1 172.855870197057 254.8899512768441 0
510 1 1 1 1 520.649017760177 286.8248948430704 0
511 1 1 1 1 66.34641118342393 430.8212864682558 0
512 1 1 1 1 134.2851662911256 -29.39271898196756 0
513 1 1 1 1 861.3861708731924 -438.9759886055436 0
514 1 1 1 1 64.73736101695481 451.2459002086714 0
515 1 1 1 1 16.64686849536638 492.7359296068204 0
516 1 1 1 1 -109.9764692661941 -299.3711375300014 0
517 1 1 1 1 -616.4780224571933 -507.6888790388741 0
518 1 1 1 1 321.1743760106554 10.48085185475376 0
519 1 1 1 1 709.9100239617292 -286.1868050643174 0
520 1 1 1 1 -303.8043658603671 -121.7453891076556 0
521 1 1 1 1 531.5594605703967 416.0190198019346 0
522 1 1 1 1 635.1493959942517 461.2239870463109 0
523 1 1 1 1 60.6810553955567 90.13155523867364 0
524 1 1 1 1 -659.4927044654556 -112.6435176574346 0
525 1 1 1 1 721.0105781034107 -317.7175730305519 0
526 1 1 1 1 1000.686785360367 125.6396985152105 0
527 1 1 1 1 66.10570568282607 182.3271807080895 0
528 1 1 1 1 -717.2741882361872 525.2037951974539 0
529 1 1 1 1 -179.0136550847116 -543.7046106221584 0
530 1 1 1 1 -397.1177909715565 -0.1466336284633485 0
531 1 1 1 1 -815.6399921667 -274.6159368995365 0
532 1 1 1 1 -887.0880939369895 -91.1681884971692 0
533 1 1 1 1 722.0037725374993 101.2653184410488 0
534 1 1 1 1 -642.1584919478999 389.313209865987 0
535 1 1 1 1 967.7011165910476 -428.9975424189984 0
536 1 1 1 1 995.1933070058745 365.4983967835285 0
537 1 1 1 1 728.0747958107924 -530.858071595153 0
538 1 1 1 1 297.7925467126503 -143.7691163418271 0
539 1 1 1 1 919.7995799616328 171.9611340385768 0
540 1 1 1 1 -700.2602553423056 -61.83151555763446 0
541 1 1 1 1 997.8891224573526 517.7077614489442 0
542 1 1 1 1 827.1175075709073 -527.0824578807617 0
543 1 1 1 1 -219.1949058999124 -183.9922196665691 0
544 1 1 1 1 -100.2221837366435 213.51783634463 0
545 1 1 1 1 -839.5520765272809 -67.91105286570075 0
546 1 1 1 1 250.6697855567171 281.3381848089153 0
547 1 1 1 1 958.8490948303452 -41.00830315153107 0
548 1 1 1 1 284.4772048140784 463.0872197985797 0
549 1 1 1 1 773.600651630126 101.683578722435 0
550 1 1 1 1 325.1719561221104 -58.43110897915636 0
551 1 1 1 1 810.2324939019134 -52.02397672009451 0
552 1 1 1 1 998.5265485612891 444.0224518584583 0
553 1 1 1 1 908.3473272636816 -232.3694166644093 0
554 1 1 1 1 966.1744307366705 -403.9918008841667 0
555 1 1 1 1 -881.3861556869317 594.4230363369735 0
556 1 1 1 1 -73.5927886627159 114.3488457492244 0
557 1 1 1 1 -363.7421324267184 -471.6690344355952 0
558 1 1 1 1 -305.765353605988 124.2720177254409 0
559 1 1 1 1 514.0005951233858 122.5649837340955 0
560 1 1 1 1 474.2823755507998 254.2495558353571 0
561 1 1 1 1 -870.8673883042608 -241.1050681659878 0
562 1 1 1 1 -830.6857154474335 -120.4098493240185 0
563 1 1 1 1 673.7907295862154 -250.8682023570804 0
564 1 1 1 1 -843.7097773540623 602.4363949997432 0
565 1 1 1 1 87.33791691978303 -545.1173405909002 0
566 1 1 1 1 394.7953872218824 -193.8374524901419 0
567 1 1 1 1 -956.7649822767979 177.4335109328712 0
568 1 1 1 1 -374.4075483210271 253.7957090150402 0
569 1 1 1 1 736.3577823274195 300.8235742255309 0
570 1 1 1 1 -363.5610938914194 90.35865871113958 0
571 1 1 1 1 607.7013497420226 537.4049096602635 0
572 1 1 1 1 -53.21939151911451 -354.2379941070267 0
573 1 1 1 1 -803.9805773667405 448.7418172908789 0
574 1 1 1 1 671.1459154330694 580.4045935533194 0
575 1 1 1 1 891.4935329521319 -292.3366418970487 0
576 1 1 1 1 -645.120304693335 -375.7321016134408 0
577 1 1 1 1 149.2409882195846 -159.7862951414886 0
578 1 1 1 1 -183.7967254855179 -433.8419514647963 0
579 1 1 1 1 524.7698949475043 108.5565720193897 0
580 1 1 1 1 -500.742250170704 334.6847903288643 0
581 1 1 1 1 -190.2275354788675 -271.6937124837917 0
582 1 1 1 1 192.3632502695013 -473.880427663908 0
583 1 1 1 1 299.0193071943113 -230.8770209776715 0
584 1 1 1 1 -486.0393586746109 429.995586172689 0
585 1 1 1 1 -38.75485868958201 -409.9586033984941 0
586 1 1 1 1 -937.3783656523198 262.8808335630965 0
587 1 1 1 1 -302.438900553835 240.5635993791017 0
588 1 1 1 1 423.6845747320487 211.9229203135105 0
589 1 1 1 1 107.6039787616625 35.83237385798663 0
590 1 1 1 1 -23.55473003162524 23.03162374843903 0