

2174 atoms
5350 bonds
1 atom types
1 bond types
-360 360 xlo xhi
-216 216 ylo yhi
-32 32 zlo zhi

Atoms #bpm/sphere

1 1 1 1 1 198.7183096322825 114.3361475050564 0
2 1 1 1 1 -61.41729308832333 84.87284649832208 0
3 1 1 1 1 341.3044836693555 -128.8668556976139 0
4 1 1 1 1 214.1887102823682 -128.8600623124618 0
5 1 1 1 1 -115.8866823598648 87.07047916078193 0
6 1 1 1 1 -57.86226703145218 183.6356574075359 0
7 1 1 1 1 33.5474090649405 89.41080246558545 0
8 1 1 1 1 170.7325616686828 -197.3303901263643 0
9 1 1 1 1 158.4849698706313 -49.40066552740561 0
10 1 1 1 1 69.59094988680397 92.62255664198324 0
11 1 1 1 1 347.7026869916409 -16.52203765981548 0
12 1 1 1 1 134.7512722348689 151.475771586376 0
13 1 1 1 1 27.2880455765719 140.2105800743224 0
14 1 1 1 1 103.9638336095568 202.694846906364 0
15 1 1 1 1 -90.16514642464983 101.4702510286347 0
16 1 1 1 1 -357.3371804199539 -206.8317269743125 0
17 1 1 1 1 -258.3631878057151 -101.5727229020257 0
18 1 1 1 1 357.4853993883039 175.4544556170717 0
19 1 1 1 1 50.89483073553743 16.20448551572193 0
20 1 1 1 1 -329.2552945622646 177.9523298461409 0
21 1 1 1 1 235.7650159346764 -58.12345188930129 0
22 1 1 1 1 313.2819828579571 -101.185928456523 0
23 1 1 1 1 -301.6683803256019 -193.6890565430024 0
24 1 1 1 1 -356.9625081258591 -40.07686488689291 0
25 1 1 1 1 -354.8140729128645 -81.8326229170884 0
26 1 1 1 1 -193.3320884357605 -122.5897273222726 0
27 1 1 1 1 145.2209348710825 -176.4395979826752 0
28 1 1 1 1 19.73062929803666 88.2766081121311 0
29 1 1 1 1 145.5766096582932 89.04782130292477 0
30 1 1 1 1 -170.384995935921 202.6425628025252 0
31 1 1 1 1 38.23943607548853 171.0737447873888 0
32 1 1 1 1 -80.9219889912651 -39.15885882903595 0
33 1 1 1 1 -303.3040631683638 -55.17378600293378 0
34 1 1 1 1 27.24263972476859 -206.226221767365 0
35 1 1 1 1 -261.6311998719029 109.0948462866605 0
36 1 1 1 1 188.511466420826 -46.82806480400495 0
37 1 1 1 1 -90.22190189652361 -60.86996848232275 0
38 1 1 1 1 -27.27262217027641 -94.61616835813622 0
39 1 1 1 1 -285.9594907930007 132.3253298648587 0
40 1 1 1 1 -83.23503480005871 47.24666259575923 0
41 1 1 1 1 -13.67331351505789 147.9326867114902 0
42 1 1 1 1 -262.9586862227677 65.88291950281706 0
43 1 1 1 1 -154.1449839700842 -19.4675764081218 0
44 1 1 1 1 323.1253780096745 27.8355816236934 0
45 1 1 1 1 -269.0898271762327 -107.3791042023537 0
46 1 1 1 1 175.487825778952 -122.99485380881 0
47 1 1 1 1 296.4565095595672 -126.0657809591481 0
48 1 1 1 1 226.5286265544148 -22.05000606889041 0
49 1 1 1 1 -213.2077900750733 137.7965781129004 0
50 1 1 1 1 -315.6804456256966 138.5534739322983 0
51 1 1 1 1 -63.20343200471461 -152.1635380358155 0
52 1 1 1 1 198.2357732645156 -122.0702805435404 0
53 1 1 1 1 -186.7886398007009 165.4511935877463 0
54 1 1 1 1 337.0902984444881 151.4967503071632 0
55 1 1 1 1 1.075306735191475 -151.9993887378377 0
56 1 1 1 1 39.37587501708686 61.89077360261035 0
57 1 1 1 1 85.45768782966894 -53.59268609544085 0
58 1 1 1 1 20.14561406008824 175.2849100371756 0
59 1 1 1 1 -272.4949244301917 42.39499516460921 0
60 1 1 1 1 109.2693778695306 -159.4721992968669 0
61 1 1 1 1 -291.9808556233954 105.8976097219893 0
62 1 1 1 1 14.16102828397914 -138.0557135757128 0
63 1 1 1 1 -75.63156551832884 -102.8226673388977 0
64 1 1 1 1 356.8960115303377 112.7882044689808 0
65 1 1 1 1 -101.5540256535481 -41.53676451260591 0
66 1 1 1 1 197.9402914943763 -171.6448700918707 0
67 1 1 1 1 -264.7429362556732 -60.42624684166464 0
68 1 1 1 1 80.32336493475151 -3.656177541418487 0
69 1 1 1 1 -318.7458050827033 -2.859266457595254 0
70 1 1 1 1 341.8885426184734 -55.58927159456954 0
71 1 1 1 1 -203.3528521157427 11.60755146199389 0
72 1 1 1 1 157.6727125434337 12.77375926991431 0
73 1 1 1 1 213.7796771808974 -32.44487868017373 0
74 1 1 1 1 -298.5325463209715 92.90914925335778 0
75 1 1 1 1 -273.5317253759885 67.68955809619359 0
76 1 1 1 1 -114.5588615632552 -191.1483496178452 0
77 1 1 1 1 -99.55335984054341 -122.6044518058845 0
78 1 1 1 1 57.70577666638093 -210.2760272720808 0
79 1 1 1 1 340.0576407104245 -84.38736624791724 0
80 1 1 1 1 318.8408722106631 209.103672563515 0
81 1 1 1 1 347.7885227300502 -41.8230299898421 0
82 1 1 1 1 285.7870056962927 -63.56834725404633 0
83 1 1 1 1 -113.3968273276745 51.01012218172218 0
84 1 1 1 1 -257.6649179262414 -76.72954029256877 0
85 1 1 1 1 -351.8433670331421 -114.0753009149124 0
86 1 1 1 1 171.5445729128685 -208.3744684348675 0
87 1 1 1 1 -244.0072431823115 -142.0086507435765 0
88 1 1 1 1 127.3384458762531 84.57913996351846 0
89 1 1 1 1 94.03032874969875 150.971451746835 0
90 1 1 1 1 171.1081785261285 8.558068999163652 0
91 1 1 1 1 -336.7091826252879 -161.5531659538206 0
92 1 1 1 1 -347.1829852245166 99.9952961117915 0
93 1 1 1 1 313.2343691628157 -71.37343003997361 0
94 1 1 1 1 -227.0829885394306 -198.4305837515224 0
95 1 1 1 1 -77.45060707538505 -189.0082939836924 0
96 1 1 1 1 180.7908492525426 -174.5182703866472 0
97 1 1 1 1 -216.064919619221 -190.5155511988734 0
98 1 1 1 1 54.97405177974508 174.4124552418937 0
99 1 1 1 1 190.1476612384333 39.80980790053201 0
100 1 1 1 1 -235.9275762582759 -91.15023313345759 0
101 1 1 1 1 -65.96634201690335 -85.10837117929992 0
102 1 1 1 1 45.62703734816427 84.23527309016771 0
103 1 1 1 1 -313.751400449356 -13.49558079242931 0
104 1 1 1 1 248.3449689999623 209.726363634745 0
105 1 1 1 1 -344.1347461095787 -31.01112807770431 0
106 1 1 1 1 -340.3148412469051 6.117704476309882 0
107 1 1 1 1 -236.1644748052315 -127.0585856975647 0
108 1 1 1 1 -237.8456964152624 53.59184671145715 0
109 1 1 1 1 326.2224447541413 48.5839225855126 0
110 1 1 1 1 -221.3723471120795 -44.33824365926304 0
111 1 1 1 1 203.6853888916196 61.87538231767826 0
112 1 1 1 1 -41.89064391909108 -114.2509052321056 0
113 1 1 1 1 168.4364728151713 -83.01328390865112 0
114 1 1 1 1 133.8068771880954 -16.29040909312454 0
115 1 1 1 1 -306.1198528173118 -4.630379509446101 0
116 1 1 1 1 22.07760871182802 -19.73676828466063 0
117 1 1 1 1 297.8319266591431 74.36644088842911 0
118 1 1 1 1 -324.3703170493405 -34.14979837643284 0
119 1 1 1 1 172.2678051723663 -74.05443309269825 0
120 1 1 1 1 -28.43329081081777 208.9201869965423 0
121 1 1 1 1 -284.9090159628597 98.0352813080907 0
122 1 1 1 1 243.6432677282973 157.0252521245248 0
123 1 1 1 1 73.29445942792097 103.8872673157476 0
124 1 1 1 1 277.7999732653644 153.2978548975496 0
125 1 1 1 1 -187.5991558804649 183.1243262335263 0
126 1 1 1 1 19.33518546515256 74.33951072191735 0
127 1 1 1 1 16.35807760187026 204.790520355768 0
128 1 1 1 1 181.1644059735247 84.47292829877699 0
129 1 1 1 1 -160.9127250203871 -212.9909517767094 0
130 1 1 1 1 -148.6239738066367 130.5092865618439 0
131 1 1 1 1 -268.3138657389142 193.9068940203092 0
132 1 1 1 1 322.375303742921 -195.9014653300731 0
133 1 1 1 1 -152.5046754013184 -180.1242515146844 0
134 1 1 1 1 -117.6879966496015 -73.66671969833769 0
135 1 1 1 1 -190.0139922395482 149.9905347006313 0
136 1 1 1 1 15.60680796896975 183.9523217730008 0
137 1 1 1 1 -261.4644930204178 -139.8614430553783 0
138 1 1 1 1 -101.3146626222893 13.88716897313844 0
139 1 1 1 1 298.1295490012655 25.53678300917881 0
140 1 1 1 1 79.17503318014781 -193.3773062537878 0
141 1 1 1 1 -230.5296707536212 83.32474287708908 0
142 1 1 1 1 66.73352414034156 -8.466988507576474 0
143 1 1 1 1 -309.2992411277926 192.654831462435 0
144 1 1 1 1 342.9633186903986 -198.6888621235055 0
145 1 1 1 1 -66.09032866640854 -175.0425511267333 0
146 1 1 1 1 -161.1832580158057 67.98721957036531 0
147 1 1 1 1 186.8143595887965 110.0748518451412 0
148 1 1 1 1 -144.9274219207997 -38.90550875716585 0
149 1 1 1 1 54.73706915958047 -55.81949638502684 0
150 1 1 1 1 -259.6949302742167 -120.6601283009994 0
151 1 1 1 1 -133.8810515395954 86.08617164371793 0
152 1 1 1 1 -78.61202329012525 -55.67604484936072 0
153 1 1 1 1 -65.27055907490006 144.0200624227066 0
154 1 1 1 1 97.65647357340407 87.64460438359248 0
155 1 1 1 1 105.8306791558865 -212.2237328498613 0
156 1 1 1 1 52.12913282143677 -170.6679206936342 0
157 1 1 1 1 -318.358233306651 -179.1810176528325 0
158 1 1 1 1 -272.7934493451208 -205.460433495122 0
159 1 1 1 1 -116.4819457518057 -127.2406947222518 0
160 1 1 1 1 -31.27365987310185 -63.41577796308283 0
161 1 1 1 1 -333.6807078837563 -89.37702298307501 0
162 1 1 1 1 343.8580971160798 183.9460541120814 0
163 1 1 1 1 198.7478808691118 71.12495876074132 0
164 1 1 1 1 250.7418542370644 11.56584220194435 0
165 1 1 1 1 39.03962736552148 -110.879614177949 0
166 1 1 1 1 220.4135808989508 -78.66623325175232 0
167 1 1 1 1 326.0170167319749 142.1235244090676 0
168 1 1 1 1 -233.4666741309254 -76.61043864059016 0
169 1 1 1 1 234.3506895519142 138.3614768010446 0
170 1 1 1 1 132.9117456165753 131.1667167245113 0
171 1 1 1 1 -242.5499366226702 -7.120692164742678 0
172 1 1 1 1 35.61391233435666 156.8524587933814 0
173 1 1 1 1 -186.0729199262307 -194.6193322617453 0
174 1 1 1 1 325.4562593671786 -29.03429415218423 0
175 1 1 1 1 355.9289893588287 7.977261135170465 0
176 1 1 1 1 127.7137075137608 -208.1809661850759 0
177 1 1 1 1 -201.5935588071317 -141.3748318153275 0
178 1 1 1 1 35.7768461663573 117.1564468544338 0
179 1 1 1 1 -136.8788368657086 -117.7008135039255 0
180 1 1 1 1 -45.15661327201451 -38.89449720734734 0
181 1 1 1 1 199.5787968041991 102.0057029297291 0
182 1 1 1 1 213.3808387838635 -105.142493335803 0
183 1 1 1 1 70.73847260373481 55.52923352304498 0
184 1 1 1 1 187.4483243677444 125.5406109863216 0
185 1 1 1 1 -96.012023509843 -179.9421058205666 0
186 1 1 1 1 -53.79491234242704 -193.4209173266965 0
187 1 1 1 1 -322.5816581145929 210.3235044426021 0
188 1 1 1 1 293.6566630088545 200.0036394248432 0
189 1 1 1 1 141.3823467132065 196.81011084928 0
190 1 1 1 1 -143.8691587537104 -10.60656075713362 0
191 1 1 1 1 323.476181703364 -147.8282447033799 0
192 1 1 1 1 -215.8222646275361 106.3861179165161 0
193 1 1 1 1 126.2420013857048 -126.3406067895072 0
194 1 1 1 1 292.5512218146218 -39.17889694137764 0
195 1 1 1 1 -115.2233272235628 -34.33000037652403 0
196 1 1 1 1 282.4369113627054 100.1700560432047 0
197 1 1 1 1 -85.38420164943091 61.8979852959302 0
198 1 1 1 1 -311.1293318667107 47.79864057358242 0
199 1 1 1 1 275.2400101828179 -53.56723100597552 0
200 1 1 1 1 343.5375195366254 122.8722300956777 0
201 1 1 1 1 -288.545067781969 13.36431672230415 0
202 1 1 1 1 -84.69074489936185 131.9177806489641 0
203 1 1 1 1 -35.09960178138323 -24.87069579427896 0
204 1 1 1 1 101.7986600462248 127.6198382290217 0
205 1 1 1 1 53.09770130252844 106.1510492905405 0
206 1 1 1 1 125.3450958570051 -87.34596721944422 0
207 1 1 1 1 339.8039870047265 6.43106325090784 0
208 1 1 1 1 282.1530694632097 -21.55565071763837 0
209 1 1 1 1 -332.0147701075237 76.24263444121243 0
210 1 1 1 1 -311.856346232761 111.2370700250605 0
211 1 1 1 1 -30.40870163503087 -133.0162417429467 0
212 1 1 1 1 -16.37182837143564 -29.05342900638871 0
213 1 1 1 1 -285.2183151260094 -71.92702466672125 0
214 1 1 1 1 212.6987497355912 21.08429222474356 0
215 1 1 1 1 -293.6682387563652 -203.7933328206435 0
216 1 1 1 1 152.641425950226 191.331065653665 0
217 1 1 1 1 -25.5230206850116 199.1458637045639 0
218 1 1 1 1 -75.20180978818172 80.87977970762802 0
219 1 1 1 1 -144.6510844930799 168.3652485858677 0
220 1 1 1 1 294.1884242359821 -25.87050145709856 0
221 1 1 1 1 139.8396964258065 -120.8584762856232 0
222 1 1 1 1 268.9160186857107 -62.03286022906715 0
223 1 1 1 1 -326.5311537822674 47.71746535246734 0
224 1 1 1 1 223.0041061265061 44.40292199719664 0
225 1 1 1 1 -130.835797976739 -95.20094451723641 0
226 1 1 1 1 55.16369072941126 118.8551397000293 0
227 1 1 1 1 350.6872481396985 -111.5124229891887 0
228 1 1 1 1 289.2710675337999 189.0460278115701 0
229 1 1 1 1 -104.8534014912456 -72.09445448861922 0
230 1 1 1 1 83.37205619333628 -117.0111430825713 0
231 1 1 1 1 -114.0203185345397 -147.7521108464607 0
232 1 1 1 1 -73.73426526687467 -149.9397470858143 0
233 1 1 1 1 249.9496821341922 -106.9573683334027 0
234 1 1 1 1 -200.8598904258079 206.9437314368875 0
235 1 1 1 1 -341.8739068288406 18.50460817065519 0
236 1 1 1 1 -277.1078556659068 -91.7958969260999 0
237 1 1 1 1 -259.7633296008726 -152.0376120900536 0
238 1 1 1 1 138.8650056139073 -79.16493038470165 0
239 1 1 1 1 29.48784494514655 165.9827121114976 0
240 1 1 1 1 221.753003531373 28.53602849136584 0
241 1 1 1 1 174.1482470082912 -148.8531053540541 0
242 1 1 1 1 -328.0398398733717 201.9379247784076 0
243 1 1 1 1 333.8561479004349 -62.60307067520063 0
244 1 1 1 1 -9.130201361277671 -45.56596453623169 0
245 1 1 1 1 157.9978938861739 -208.239428828302 0
246 1 1 1 1 -10.25323592618167 -99.10303577460947 0
247 1 1 1 1 273.7739016715095 162.2322841830893 0
248 1 1 1 1 326.7340225043369 125.8313028984995 0
249 1 1 1 1 -76.96230106349879 93.07495382570812 0
250 1 1 1 1 -148.9743280845465 -135.5299582974295 0
251 1 1 1 1 217.7878458850752 -179.9728616829719 0
252 1 1 1 1 310.0041895275406 -150.2885822209089 0
253 1 1 1 1 57.33047927836674 -181.5707670446531 0
254 1 1 1 1 69.80628408376441 -67.49377793006644 0
255 1 1 1 1 -43.49668982250176 154.7475020613939 0
256 1 1 1 1 44.17616644409344 -14.67569590734888 0
257 1 1 1 1 -12.58824711872842 -142.3796173785976 0
258 1 1 1 1 -53.72074318756899 -104.4036420999163 0
259 1 1 1 1 -241.3295008173824 -41.79869950070639 0
260 1 1 1 1 60.73716854359333 55.44604214242725 0
261 1 1 1 1 -79.58415779779364 -176.4834591390529 0
262 1 1 1 1 -316.7733677291797 -79.85731869346733 0
263 1 1 1 1 -98.78284038978103 147.3359394797434 0
264 1 1 1 1 -295.4028878035224 -25.33885796849847 0
265 1 1 1 1 -306.8156277710788 -68.20565670016654 0
266 1 1 1 1 -311.204259423181 -94.51163375927736 0
267 1 1 1 1 102.1290110432821 58.30315480545232 0
268 1 1 1 1 -138.7636952016859 17.46221338792049 0
269 1 1 1 1 200.4879411219698 -53.75943404181996 0
270 1 1 1 1 -348.5901851351194 133.4387715967498 0
271 1 1 1 1 -324.7841322904421 129.5972477907435 0
272 1 1 1 1 22.01918341904189 -151.0937441648641 0
273 1 1 1 1 267.7099927647219 0.1736590958190618 0
274 1 1 1 1 322.3835605335053 -14.80273711885167 0
275 1 1 1 1 -43.68480850917013 -104.5664925179103 0
276 1 1 1 1 -275.8206658737892 210.4695039591002 0
277 1 1 1 1 -352.5087673424486 116.3290627571439 0
278 1 1 1 1 291.8346103129663 17.47710727956581 0
279 1 1 1 1 -141.3645872584207 -204.6127582164023 0
280 1 1 1 1 -105.9896325420169 -99.20462154435222 0
281 1 1 1 1 164.4927949396915 -27.59870279153881 0
282 1 1 1 1 264.7887526619571 -86.31722203114961 0
283 1 1 1 1 266.5748685982899 -19.72887786847062 0
284 1 1 1 1 -213.8630068797301 42.08144809619773 0
285 1 1 1 1 -115.0283082184226 40.94068849792325 0
286 1 1 1 1 86.14977899266467 -142.6738200747355 0
287 1 1 1 1 -22.58221511706694 -6.148602526789119 0
288 1 1 1 1 -115.3807099282052 -90.46956773127624 0
289 1 1 1 1 56.76993920550149 91.47308676557134 0
290 1 1 1 1 248.8943066874006 100.2211595159719 0
291 1 1 1 1 157.5027019221199 156.1748526927753 0
292 1 1 1 1 58.22147117672313 -101.8426099768062 0
293 1 1 1 1 143.1374261328079 -152.0738858042438 0
294 1 1 1 1 169.8704446010401 -168.4638765335699 0
295 1 1 1 1 -339.8266459118086 -189.6170253575426 0
296 1 1 1 1 -63.7183559500748 131.8381561709149 0
297 1 1 1 1 -36.49065252578282 199.8500909501838 0
298 1 1 1 1 -74.25418439596774 40.42811700899682 0
299 1 1 1 1 13.15822982430177 -105.6821003653585 0
300 1 1 1 1 358.7926396499524 -130.1641688045638 0
301 1 1 1 1 -64.58416038469272 11.20191119564518 0
302 1 1 1 1 -263.0016214104763 51.45474978847619 0
303 1 1 1 1 -73.07844670553482 -212.569434057747 0
304 1 1 1 1 -256.5112058419685 142.2588816115956 0
305 1 1 1 1 145.9512099998074 -72.16258817022487 0
306 1 1 1 1 329.7718050877016 -85.68550098019335 0
307 1 1 1 1 -311.0522300182815 -190.1551804438095 0
308 1 1 1 1 -98.14497318833389 163.4538513980187 0
309 1 1 1 1 256.30215750785 29.73998472361569 0
310 1 1 1 1 -167.1706656856427 124.7381970803176 0
311 1 1 1 1 70.89802580242241 40.22477722493829 0
312 1 1 1 1 -20.82997735920196 55.12862420304731 0
313 1 1 1 1 241.0759992380097 -161.247097190078 0
314 1 1 1 1 350.0171442204714 82.9059633890306 0
315 1 1 1 1 -116.1298958726758 31.06608671335789 0
316 1 1 1 1 -128.5288520401149 -58.60488910199706 0
317 1 1 1 1 111.40766475953 -94.06548667369597 0
318 1 1 1 1 -144.4978611947319 -188.9821226680392 0
319 1 1 1 1 -196.192327831953 176.6001989085013 0
320 1 1 1 1 -28.38234134859579 -192.0122709207556 0
321 1 1 1 1 256.9601964695729 54.65938610499751 0
322 1 1 1 1 -349.655355200227 -21.68833392593868 0
323 1 1 1 1 56.62266113106858 139.9288147966588 0
324 1 1 1 1 -342.017253823855 -214.9040168883978 0
325 1 1 1 1 -232.0898656554519 166.7978531701178 0
326 1 1 1 1 -62.78481031536364 156.3920343057696 0
327 1 1 1 1 -116.3346779132539 -208.454099566727 0
328 1 1 1 1 214.6904913407408 190.0336009398416 0
329 1 1 1 1 -191.5217906653579 -176.0975387472689 0
330 1 1 1 1 85.99374486799815 63.89749504855206 0
331 1 1 1 1 298.6732802843097 167.4658123215543 0
332 1 1 1 1 -143.142473317544 -162.5649820790063 0
333 1 1 1 1 -156.0909263040651 13.47877624206839 0
334 1 1 1 1 27.86216690666174 -92.92016661074655 0
335 1 1 1 1 -308.7792060103618 -161.3985656841232 0
336 1 1 1 1 326.9439241175427 -51.77373389669353 0
337 1 1 1 1 -17.23620076965744 45.38105363566092 0
338 1 1 1 1 349.3754308281395 203.1737081238551 0
339 1 1 1 1 91.43132448196468 -211.9176971881661 0
340 1 1 1 1 88.18083032651265 83.09395400261224 0
341 1 1 1 1 -181.0816107413511 20.77551331117152 0
342 1 1 1 1 134.2748997465845 -94.19478862543423 0
343 1 1 1 1 -176.3662767673164 -193.2038812698607 0
344 1 1 1 1 188.43195233325 -27.20836013589988 0
345 1 1 1 1 92.91781523686075 167.7120348886071 0
346 1 1 1 1 -106.8005862552171 27.55427151567113 0
347 1 1 1 1 -164.5810907277816 -160.1210980082059 0
348 1 1 1 1 259.8229372489396 -128.0078252563369 0
349 1 1 1 1 -172.5549713563806 35.21581070381706 0
350 1 1 1 1 106.2492387539053 136.8161808354053 0
351 1 1 1 1 194.573298429414 0.1155062529551572 0
352 1 1 1 1 -38.46501941089963 180.0153212329801 0
353 1 1 1 1 337.7773583563858 -176.5297061876179 0
354 1 1 1 1 -290.9216507758703 205.7364343363419 0
355 1 1 1 1 -191.2146905745751 -155.1708015843657 0
356 1 1 1 1 -3.708606557974861 144.1180929761735 0
357 1 1 1 1 46.57358872486037 126.1623336159982 0
358 1 1 1 1 -331.8012955456037 -100.5970127995821 0
359 1 1 1 1 -266.372246891617 207.2184340134558 0
360 1 1 1 1 -262.4371406294615 177.4335940864432 0
361 1 1 1 1 118.5922905312086 -201.1430118396225 0
362 1 1 1 1 -251.6510543208533 89.83461529048589 0
363 1 1 1 1 -304.2068910132227 -31.60057404289012 0
364 1 1 1 1 -166.6308752987473 11.13191029275342 0
365 1 1 1 1 -347.8031728147356 201.634171405664 0
366 1 1 1 1 315.8559025016933 100.5974773574686 0
367 1 1 1 1 101.9587748568173 -126.3379017296404 0
368 1 1 1 1 150.3142421082392 -60.53577885642511 0
369 1 1 1 1 -16.95835745394777 191.1804505595454 0
370 1 1 1 1 -37.96713614214366 11.00558227653932 0
371 1 1 1 1 -187.332778393116 72.74746367834302 0
372 1 1 1 1 -255.7170094208635 203.9467100740462 0
373 1 1 1 1 296.745311187312 -174.1308481885846 0
374 1 1 1 1 -52.79358780988378 123.0576800229606 0
375 1 1 1 1 -342.8745943815289 70.75832226327441 0
376 1 1 1 1 -257.8813480418674 -50.68370824343285 0
377 1 1 1 1 -291.7953066992263 74.05241131679981 0
378 1 1 1 1 -130.2596017131375 -141.0686703251654 0
379 1 1 1 1 -349.7312751004964 -8.242214189195749 0
380 1 1 1 1 -128.873489197043 192.8652392206475 0
381 1 1 1 1 159.5884831284487 62.09423203056775 0
382 1 1 1 1 -125.678210823478 -110.1218508066061 0
383 1 1 1 1 -261.1576919749238 33.00889776466534 0
384 1 1 1 1 -222.5890489478215 73.90778252253102 0
385 1 1 1 1 -91.40721346567437 -11.68646797399526 0
386 1 1 1 1 -310.7932175806832 156.2827102765949 0
387 1 1 1 1 257.4151612730836 -27.91692003418928 0
388 1 1 1 1 -70.684758093786 116.7775964156891 0
389 1 1 1 1 -290.0519056491868 -192.1500552163763 0
390 1 1 1 1 219.8815468034795 125.0085296541972 0
391 1 1 1 1 93.81581077717971 -136.2010881999482 0
392 1 1 1 1 -133.0933077079925 145.1644083061451 0
393 1 1 1 1 191.4476988608861 -104.072388597719 0
394 1 1 1 1 -170.2026510697011 -64.59426255281468 0
395 1 1 1 1 -185.6232650421237 -28.34467982860645 0
396 1 1 1 1 -156.8468205788471 192.8726062975758 0
397 1 1 1 1 -41.50304965482138 38.58263562926285 0
398 1 1 1 1 -164.2204785398073 -186.6068683666011 0
399 1 1 1 1 -18.33150591209159 22.72831687244263 0
400 1 1 1 1 326.0442061712355 -165.9736086020428 0
401 1 1 1 1 62.66259470722542 -110.789018356271 0
402 1 1 1 1 -59.44766669030975 197.7506998083079 0
403 1 1 1 1 174.2282619725219 -105.9928214487366 0
404 1 1 1 1 159.9541045488215 36.65838538489362 0
405 1 1 1 1 69.6117928982963 -180.6988839721818 0
406 1 1 1 1 -74.54225676824291 186.504294710881 0
407 1 1 1 1 -304.8329514553311 -120.9761010756591 0
408 1 1 1 1 -138.2120237375472 -50.64112978102577 0
409 1 1 1 1 -274.2252200362159 -166.0739399042668 0
410 1 1 1 1 265.7425704734943 -50.94646619469401 0
411 1 1 1 1 64.2695391716407 -164.4637015961185 0
412 1 1 1 1 260.9062887158921 -190.9206808084125 0
413 1 1 1 1 -10.10331171643554 -211.3585157491787 0
414 1 1 1 1 -129.1745889036458 -128.7564995155594 0
415 1 1 1 1 -191.9587382924099 -89.16488421644161 0
416 1 1 1 1 -40.128065629378 -186.5539384239814 0
417 1 1 1 1 -35.39292215766363 82.96739086286181 0
418 1 1 1 1 -110.2558245607852 156.2276283938754 0
419 1 1 1 1 -306.905685682226 129.8208912544436 0
420 1 1 1 1 150.0998648319385 -130.2211100986399 0
421 1 1 1 1 241.2569375606601 -70.0735448169531 0
422 1 1 1 1 -319.4687593836448 -123.4592538156478 0
423 1 1 1 1 248.3555638484485 23.06093904024056 0
424 1 1 1 1 -31.93580628284002 65.84401072944269 0
425 1 1 1 1 123.0988286910715 159.3993644669459 0
426 1 1 1 1 180.3962162941374 4.604495668964887 0
427 1 1 1 1 118.2672270485977 -59.22013146121103 0
428 1 1 1 1 -250.8905358098681 -93.05917821046698 0
429 1 1 1 1 143.5053275576165 -17.41820555827553 0
430 1 1 1 1 146.8896826084095 71.20038218920996 0
431 1 1 1 1 342.8208671369755 62.74544280119642 0
432 1 1 1 1 -147.9040357538441 7.24324310176516 0
433 1 1 1 1 -240.0185859252507 -198.1197750626331 0
434 1 1 1 1 72.81675701690568 196.3685428473203 0
435 1 1 1 1 -76.3199894207192 -136.6672127662635 0
436 1 1 1 1 -116.1813297671154 -55.18033014321333 0
437 1 1 1 1 -109.4699392596761 198.9225047048727 0
438 1 1 1 1 -10.31839400601245 181.1830189368928 0
439 1 1 1 1 -199.0948830247727 194.4474390696103 0
440 1 1 1 1 -326.628211387192 -188.5493935277322 0
441 1 1 1 1 -180.2786528831687 -54.90221644848444 0
442 1 1 1 1 -254.3019955248443 76.70010217358646 0
443 1 1 1 1 310.8479633943821 -91.54629043775202 0
444 1 1 1 1 2.360595806888739 16.65866668687312 0
445 1 1 1 1 37.16773950107256 -124.6470039331838 0
446 1 1 1 1 27.72460249001261 206.0567300431029 0
447 1 1 1 1 -26.5589036243652 76.10824536996211 0
448 1 1 1 1 321.8463560442178 197.9755387368758 0
449 1 1 1 1 -144.8485038911279 -81.90853460100468 0
450 1 1 1 1 -57.6032702405692 -139.8011441637354 0
451 1 1 1 1 -311.7826697804538 87.44963577986221 0
452 1 1 1 1 249.3361993680848 139.2492422960071 0
453 1 1 1 1 -126.2042603292942 164.873834999914 0
454 1 1 1 1 10.34225799970307 -75.58519371501456 0
455 1 1 1 1 107.1308255320678 66.86627954365855 0
456 1 1 1 1 183.2733543737171 -210.9783064343358 0
457 1 1 1 1 12.82354602422953 52.70674849812372 0
458 1 1 1 1 175.602382731837 -55.61370771387905 0
459 1 1 1 1 91.88050299866575 -26.98532108717097 0
460 1 1 1 1 -54.33730582991046 -92.13001089100951 0
461 1 1 1 1 121.5833846789088 49.23182228924213 0
462 1 1 1 1 -42.34093291294431 -145.3410525406137 0
463 1 1 1 1 -58.93560826245056 75.18098085562349 0
464 1 1 1 1 196.8498926579011 -64.33946807929559 0
465 1 1 1 1 1.825513195440351 -132.9757250758061 0
466 1 1 1 1 -165.0882553724569 145.2444155325974 0
467 1 1 1 1 329.1434623542383 65.20593217240412 0
468 1 1 1 1 275.526383515043 210.3551876770274 0
469 1 1 1 1 -129.2079896161083 -163.0764005757653 0
470 1 1 1 1 153.9752723268211 44.1788321081977 0
471 1 1 1 1 280.5730229265499 -162.369751825955 0
472 1 1 1 1 -29.73927959725177 -205.5431217410532 0
473 1 1 1 1 189.6651764677741 -196.5190710405721 0
474 1 1 1 1 334.691735093132 -21.94409024075219 0
475 1 1 1 1 -180.8858286283277 -144.5275326324913 0
476 1 1 1 1 -249.0346477338505 -184.759654559431 0
477 1 1 1 1 -41.99822728977819 132.3813795901405 0
478 1 1 1 1 286.2591953249032 51.51384924132185 0
479 1 1 1 1 22.86995687225783 -191.7547989784972 0
480 1 1 1 1 -265.3550692150828 -87.98546829599886 0
481 1 1 1 1 356.5693307562427 50.12259969812095 0
482 1 1 1 1 -303.7072765296093 -211.6970322547263 0
483 1 1 1 1 243.7078622240192 110.3056068513553 0
484 1 1 1 1 -21.77119449619732 -145.3745089220171 0
485 1 1 1 1 -30.22359107430447 -53.78008439976554 0
486 1 1 1 1 -75.39570212496983 -92.42455432666358 0
487 1 1 1 1 -228.5700990057648 94.43538203858913 0
488 1 1 1 1 -228.5247459291384 -10.73239991073456 0
489 1 1 1 1 204.168066377594 -211.4082780433143 0
490 1 1 1 1 -6.808419748436393 -25.96209635196161 0
491 1 1 1 1 -310.6582629260199 213.160790904658 0
492 1 1 1 1 -346.0923341591836 159.9826113878792 0
493 1 1 1 1 229.9555034306242 157.2321945887127 0
494 1 1 1 1 330.5491030564014 -114.1632336015725 0
495 1 1 1 1 -240.3925381517281 130.2357476772249 0
496 1 1 1 1 306.6664337127278 184.7439977185078 0
497 1 1 1 1 297.960087111044 37.55090307527476 0
498 1 1 1 1 -288.6509315795017 -5.537811007099407 0
499 1 1 1 1 -326.7015967065435 163.3292218257931 0
500 1 1 1 1 130.5500093348308 116.0751231248215 0
501 1 1 1 1 -282.2065442340939 -42.64311595642914 0
502 1 1 1 1 157.1836475330183 -148.1018984368211 0
503 1 1 1 1 159.7164558731159 -87.63686440289692 0
504 1 1 1 1 -199.1524910175052 -214.0819556420312 0
505 1 1 1 1 -328.2403446479048 -51.25468262489753 0
506 1 1 1 1 150.1992526115701 178.8579087760457 0
507 1 1 1 1 -126.9140846389635 110.2535213675469 0
508 1 1 1 1 80.15183178061864 48.76255058323471 0
509 1 1 1 1 -307.480351229257 -82.53278379277253 0
510 1 1 1 1 -278.9817015708044 157.9357559675482 0
511 1 1 1 1 336.9447896523168 211.3815857080342 0
512 1 1 1 1 -12.02507518311876 7.738238595306797 0
513 1 1 1 1 -290.5981702856709 -51.89802189426234 0
514 1 1 1 1 -64.80115561301574 -101.2268478795744 0
515 1 1 1 1 7.566317593765689 -166.1284883833133 0
516 1 1 1 1 17.50650363148327 -88.17290325442365 0
517 1 1 1 1 -316.1533226671056 27.72452823289396 0
518 1 1 1 1 -38.82205289431812 -126.6973787732606 0
519 1 1 1 1 25.45166400072458 99.84135454277617 0
520 1 1 1 1 184.1432436353239 -144.5924925902856 0
521 1 1 1 1 108.5436703412234 3.767113332555482 0
522 1 1 1 1 -29.90530580791784 -120.4825750275846 0
523 1 1 1 1 238.7481538145345 12.30541313186217 0
524 1 1 1 1 112.5499131111718 154.5616849496285 0
525 1 1 1 1 -245.1518136080717 23.53994885600076 0
526 1 1 1 1 -281.8733535978194 54.17494153109664 0
527 1 1 1 1 85.78513566138571 -81.72024502530954 0
528 1 1 1 1 188.1149228810201 22.89082709199326 0
529 1 1 1 1 250.2093040403644 86.38370405570817 0
530 1 1 1 1 184.9135110862917 -185.4847989039209 0
531 1 1 1 1 -320.8171581757049 117.2273632626918 0
532 1 1 1 1 177.7533512036439 171.2517272784846 0
533 1 1 1 1 199.6347930153603 31.20017619303661 0
534 1 1 1 1 -299.6540540869059 -144.6153149219481 0
535 1 1 1 1 -352.9008657868291 -51.44385743163281 0
536 1 1 1 1 -213.7325476634968 -6.759481513163792 0
537 1 1 1 1 16.4691831695659 -203.3055303946114 0
538 1 1 1 1 48.41244680066859 153.1476654479135 0
539 1 1 1 1 37.65589117377488 30.71347963129361 0
540 1 1 1 1 -161.5641687612259 -197.8647691198616 0
541 1 1 1 1 109.9981222690272 -26.93514445555911 0
542 1 1 1 1 -51.08033140048514 -149.8535783784931 0
543 1 1 1 1 -218.7780080844527 12.62144191445799 0
544 1 1 1 1 -139.4559927704383 -23.88214847027095 0
545 1 1 1 1 -79.29114576366158 209.9699728240513 0
546 1 1 1 1 332.2295786965563 110.1727935912429 0
547 1 1 1 1 -9.556618143673859 119.7071663605218 0
548 1 1 1 1 -236.0287829755656 200.7776695552822 0
549 1 1 1 1 -286.4224936693618 -148.1419645990941 0
550 1 1 1 1 -63.78480830980459 -186.8190252881728 0
551 1 1 1 1 -231.2377227319388 -144.4081938674735 0
552 1 1 1 1 35.79997171519409 -73.07168195018323 0
553 1 1 1 1 -169.1118355486918 86.73800388781103 0
554 1 1 1 1 13.90186359511347 19.50393041553335 0
555 1 1 1 1 -358.4906662481798 -196.5572818972291 0
556 1 1 1 1 65.3810185892969 -154.5217983404112 0
557 1 1 1 1 45.72342973815046 -29.2544891623553 0
558 1 1 1 1 270.473330798765 -122.6964221479159 0
559 1 1 1 1 83.92712352107532 31.11975436409054 0
560 1 1 1 1 -0.8430065085486831 176.3953004716358 0
561 1 1 1 1 323.3895583657018 -60.94526462362293 0
562 1 1 1 1 -3.11004250494625 159.5036606888124 0
563 1 1 1 1 -269.7280203842714 -146.6246830406893 0
564 1 1 1 1 -28.51629755589244 8.61809527570037 0
565 1 1 1 1 -82.28518560259721 31.96969943691829 0
566 1 1 1 1 206.2256128740813 -12.43152352910687 0
567 1 1 1 1 156.4675868705862 -5.076349128186649 0
568 1 1 1 1 70.81497694824157 -104.3733598312256 0
569 1 1 1 1 -0.6675927172069578 29.14422721991616 0
570 1 1 1 1 243.5080569296517 192.0573140080049 0
571 1 1 1 1 -296.8028474929895 20.83505142174647 0
572 1 1 1 1 242.9251378391916 65.23982595828852 0
573 1 1 1 1 352.5203105862217 138.8661609849357 0
574 1 1 1 1 -180.6861487916535 176.1352743706314 0
575 1 1 1 1 -133.9935815057575 134.4885012516017 0
576 1 1 1 1 216.2613566548854 138.1915829080728 0
577 1 1 1 1 -299.4588860821443 117.8659646099881 0
578 1 1 1 1 309.5719429844405 -118.9446514297484 0
579 1 1 1 1 -91.72648443810783 -1.692023397942904 0
580 1 1 1 1 208.9479605109931 -60.89365294983827 0
581 1 1 1 1 312.4122399389704 126.3424873249772 0
582 1 1 1 1 -207.2920098343715 -207.0484075281389 0
583 1 1 1 1 -105.7079733910174 138.8104094269154 0
584 1 1 1 1 59.25700890360702 -37.82706234610356 0
585 1 1 1 1 341.9920544353316 41.70103318316649 0
586 1 1 1 1 -58.76604867981587 60.37708388480172 0
587 1 1 1 1 -140.3368765226004 190.1970307826327 0
588 1 1 1 1 -284.3971600199237 -183.306642180527 0
589 1 1 1 1 -175.4716099061349 167.2318378170511 0