

2155 atoms
5300 bonds
1 atom types
1 bond types
-503.9999999999999 503.9999999999999 xlo xhi
-302.4 302.4 ylo yhi
-32 32 zlo zhi

Atoms #bpm/sphere

1 1 1 1 1 298.9797647258871 -172.2028677435849 0
2 1 1 1 1 -46.93586319002291 -8.475539037866104 0
3 1 1 1 1 16.9069322971991 165.0777144502192 0
4 1 1 1 1 39.57363297898375 -291.7791663744404 0
5 1 1 1 1 -330.8055154916993 131.5649210188931 0
6 1 1 1 1 -138.3143115235517 -111.1162664596549 0
7 1 1 1 1 -158.5578187088022 39.21455936185596 0
8 1 1 1 1 -323.3914697942062 263.2238706952413 0
9 1 1 1 1 43.96678052523159 -275.9309407248145 0
10 1 1 1 1 190.8679757601894 -248.0495589097563 0
11 1 1 1 1 451.4212658995531 32.44303738966516 0
12 1 1 1 1 -39.23927462396823 245.3132220871571 0
13 1 1 1 1 -394.5658883722869 144.8602652709806 0
14 1 1 1 1 -245.3575417827047 37.73287379500475 0
15 1 1 1 1 292.0197089202919 -241.921795149501 0
16 1 1 1 1 122.5539947304698 -205.1387194390892 0
17 1 1 1 1 -76.75852730873541 273.5879749439554 0
18 1 1 1 1 -393.6598387203556 123.6860097478272 0
19 1 1 1 1 490.3142533387577 154.6588214020829 0
20 1 1 1 1 -383.6903552000265 -76.75058951781661 0
21 1 1 1 1 -65.47640668839473 -1.136078859102264 0
22 1 1 1 1 -220.3092177569706 216.1213911888061 0
23 1 1 1 1 347.4100826082876 240.5434992068751 0
24 1 1 1 1 64.38607009456632 111.5359587310685 0
25 1 1 1 1 328.2768849237443 -51.58338747154301 0
26 1 1 1 1 331.4197140429844 -170.2504234021167 0
27 1 1 1 1 196.4155344305305 108.1978398325822 0
28 1 1 1 1 264.5802151944812 202.6731001382215 0
29 1 1 1 1 -446.4332887429235 -217.1044715666497 0
30 1 1 1 1 494.4798004051209 203.5672762067291 0
31 1 1 1 1 445.5227201767992 140.9033170681849 0
32 1 1 1 1 108.5438650438225 -237.4300407646831 0
33 1 1 1 1 -444.5746418598268 113.2424224497442 0
34 1 1 1 1 42.28793973203563 -161.1187759664737 0
35 1 1 1 1 -483.7739614075781 97.32705362543932 0
36 1 1 1 1 13.76906834047094 133.3028028584184 0
37 1 1 1 1 -330.4147109483886 -80.30996054095665 0
38 1 1 1 1 399.832335932548 219.633469867179 0
39 1 1 1 1 273.3365126504738 260.5284477768339 0
40 1 1 1 1 184.1871205692104 207.4181468908956 0
41 1 1 1 1 158.0314575090049 58.49266014126921 0
42 1 1 1 1 236.0568498994879 35.76897616142059 0
43 1 1 1 1 242.4070439467829 258.3177170770273 0
44 1 1 1 1 -265.4172678747668 -59.20122863039553 0
45 1 1 1 1 -124.5036884386704 -47.04639070141715 0
46 1 1 1 1 -203.8069535844364 -160.8073298772098 0
47 1 1 1 1 -179.3718358236104 209.8329897954313 0
48 1 1 1 1 449.2532378085592 300.7722280905417 0
49 1 1 1 1 -90.27011502794052 287.3103837857683 0
50 1 1 1 1 -210.2597091934935 -12.9053721242653 0
51 1 1 1 1 -236.8693816857547 182.7991968357313 0
52 1 1 1 1 -305.3382440149699 233.2107095128554 0
53 1 1 1 1 -100.2928631802754 117.6165391712377 0
54 1 1 1 1 -127.2444010334108 -270.0660823837808 0
55 1 1 1 1 -13.23580409282307 -222.6297014227572 0
56 1 1 1 1 -318.7290093198587 -111.7388957893011 0
57 1 1 1 1 484.0611012434517 274.1036812302056 0
58 1 1 1 1 -170.916392486579 226.7970130988667 0
59 1 1 1 1 -32.65045812769324 -125.8823744208311 0
60 1 1 1 1 -498.7977567549507 31.45197813469249 0
61 1 1 1 1 480.3613843466691 0.8173835913884147 0
62 1 1 1 1 -391.5783026338647 172.8649087887598 0
63 1 1 1 1 164.1469898052654 -204.2396976059205 0
64 1 1 1 1 -273.2763473131314 180.2529585127647 0
65 1 1 1 1 43.63904972710761 296.5078014461906 0
66 1 1 1 1 -292.421856509088 91.3986611708015 0
67 1 1 1 1 -105.5586552040148 193.2526275132583 0
68 1 1 1 1 -258.9594540411405 -125.5528694731538 0
69 1 1 1 1 180.404710198603 129.8607913679285 0
70 1 1 1 1 294.1820372617958 -12.66416045741443 0
71 1 1 1 1 413.3075568101692 -143.9614416668349 0
72 1 1 1 1 -362.93134426455 287.3223932274897 0
73 1 1 1 1 -162.4643472671294 -7.83518564757349 0
74 1 1 1 1 -290.8268271739789 151.9590397628277 0
75 1 1 1 1 -202.2883686960455 165.8184607179429 0
76 1 1 1 1 468.0291044426791 -250.200178888868 0
77 1 1 1 1 120.7709290573583 -5.553865271968641 0
78 1 1 1 1 -48.67306793393527 -57.77759612056291 0
79 1 1 1 1 430.2031269678213 246.7031330469501 0
80 1 1 1 1 -502.3706878159939 207.9656035477069 0
81 1 1 1 1 -177.112544206893 -162.0876791289713 0
82 1 1 1 1 159.9353277777138 -291.5901708692124 0
83 1 1 1 1 -105.5293292349577 -251.3100585637144 0
84 1 1 1 1 -502.3930022892008 -36.53465010576696 0
85 1 1 1 1 -500.850484946235 225.3302834303895 0
86 1 1 1 1 -220.8067788226861 16.89609656916964 0
87 1 1 1 1 -339.1751306197482 -244.9817411220329 0
88 1 1 1 1 477.2941073039354 162.9086284606914 0
89 1 1 1 1 345.2740310728894 149.4404482556524 0
90 1 1 1 1 212.6807046235283 125.0078846319452 0
91 1 1 1 1 487.5079665701592 -16.3045686902835 0
92 1 1 1 1 -142.4040818204533 118.5940477173124 0
93 1 1 1 1 -48.27654344496659 -188.0081442094033 0
94 1 1 1 1 45.51216862757612 243.1146165481671 0
95 1 1 1 1 501.0292517762269 -185.9101145084344 0
96 1 1 1 1 -250.8284371996065 159.3419418241278 0
97 1 1 1 1 282.8949799848421 195.5513350114321 0
98 1 1 1 1 -419.7587357753782 -155.8714304681127 0
99 1 1 1 1 -441.5210479694852 79.00931857888405 0
100 1 1 1 1 429.6788922723094 -183.0895044548793 0
101 1 1 1 1 419.1571105582304 87.34829027190017 0
102 1 1 1 1 145.3054318107044 63.25477300778061 0
103 1 1 1 1 -160.6516559566292 -86.37515748782602 0
104 1 1 1 1 -81.87292737868123 -192.0040901689615 0
105 1 1 1 1 -240.1044607321771 -272.5654831814187 0
106 1 1 1 1 263.1790207983801 -56.76485457075082 0
107 1 1 1 1 -327.2361094340513 -146.4314481949871 0
108 1 1 1 1 208.0488775913029 -118.9268512467233 0
109 1 1 1 1 92.05547326602419 -90.49849966444003 0
110 1 1 1 1 -435.0226891049149 31.0403245880976 0
111 1 1 1 1 2.240844886770697 117.1907196566314 0
112 1 1 1 1 -70.64312562243239 -164.5093348803577 0
113 1 1 1 1 154.3231047161137 35.01812338971487 0
114 1 1 1 1 315.4510347077687 -60.33740072076348 0
115 1 1 1 1 163.5236164040878 -178.7675387337428 0
116 1 1 1 1 -242.9729157787008 21.50538968767343 0
117 1 1 1 1 15.99002195646535 -150.577152755997 0
118 1 1 1 1 -407.4852240373606 105.535244257719 0
119 1 1 1 1 300.512838005836 -150.0496879265324 0
120 1 1 1 1 -305.2170904936824 55.61420013508521 0
121 1 1 1 1 -186.8103076880994 -248.3703428310095 0
122 1 1 1 1 383.7174319066037 -68.99455837676626 0
123 1 1 1 1 -69.21977520265548 180.5958068190326 0
124 1 1 1 1 66.8047849878503 -130.3241304904523 0
125 1 1 1 1 -491.6785175863059 -48.80286726426053 0
126 1 1 1 1 -350.2267990911878 169.518035072696 0
127 1 1 1 1 274.7468638462486 -179.4382652434204 0
128 1 1 1 1 -316.2313809414451 -42.10543928919483 0
129 1 1 1 1 -71.6331068679424 -28.57317130458636 0
130 1 1 1 1 240.1015087059816 -224.8561691933555 0
131 1 1 1 1 -54.12041676466656 34.52933899347428 0
132 1 1 1 1 129.4504481291777 -297.8731395742776 0
133 1 1 1 1 499.1190748416238 92.87470964412552 0
134 1 1 1 1 211.6063613286759 -242.1819030326135 0
135 1 1 1 1 419.0264481070108 49.67947397459503 0
136 1 1 1 1 419.7531307863322 182.3659770526224 0
137 1 1 1 1 166.2246103158469 19.73162090091685 0
138 1 1 1 1 -378.8037651935297 -245.9097270691304 0
139 1 1 1 1 241.3264401854439 -47.00460089520945 0
140 1 1 1 1 222.3162536700952 -158.4676714550739 0
141 1 1 1 1 377.1123058965846 -157.9237397016454 0
142 1 1 1 1 -251.8220398717795 -90.45142623806274 0
143 1 1 1 1 32.65385095909598 -59.2216488404824 0
144 1 1 1 1 214.2400450306279 -296.9688194761928 0
145 1 1 1 1 -41.83712036514618 -102.551460460673 0
146 1 1 1 1 434.4309417504137 217.6830415952797 0
147 1 1 1 1 -120.5226859306494 136.8349066908336 0
148 1 1 1 1 -316.7888588949019 24.51662360086716 0
149 1 1 1 1 34.55133418788501 -41.00414226810932 0
150 1 1 1 1 -265.4606993476439 -33.34789150927377 0
151 1 1 1 1 -2.080992673226513 234.2615179839083 0
152 1 1 1 1 316.3201824779627 93.77848864695316 0
153 1 1 1 1 239.9961714734512 94.75512568822813 0
154 1 1 1 1 -295.5371453070829 -56.38750754231587 0
155 1 1 1 1 201.6447817134116 176.2154247256843 0
156 1 1 1 1 9.43934984964327 -88.29530497123467 0
157 1 1 1 1 -306.1118569601883 138.0983701316711 0
158 1 1 1 1 -425.0423974684235 -199.5272396993493 0
159 1 1 1 1 61.61635761165636 -174.4413732829408 0
160 1 1 1 1 -90.84677246357813 -122.3935011729623 0
161 1 1 1 1 -55.96092200740407 69.79215511879193 0
162 1 1 1 1 -355.3027487653274 48.24860227535606 0
163 1 1 1 1 439.3481734172541 -263.6466302129351 0
164 1 1 1 1 390.4734435462046 150.7058352485069 0
165 1 1 1 1 167.8818400083625 -131.8223263149951 0
166 1 1 1 1 -220.8449146528101 -141.8220381744717 0
167 1 1 1 1 421.2739606708154 145.3891225559556 0
168 1 1 1 1 263.2990432399908 -270.94929281721 0
169 1 1 1 1 -415.278860679413 88.05476117530583 0
170 1 1 1 1 -62.30221473630717 223.8478185521077 0
171 1 1 1 1 -161.8549426207252 132.7326492026997 0
172 1 1 1 1 -440.7993525673853 155.0778979103194 0
173 1 1 1 1 410.04202502933 -89.94803700922736 0
174 1 1 1 1 -414.34640330819 -82.79578527463637 0
175 1 1 1 1 -479.8969529918778 223.6365277720836 0
176 1 1 1 1 -96.92448469307118 -66.50396406875373 0
177 1 1 1 1 -281.5814229503529 53.40961972608591 0
178 1 1 1 1 -207.0469480811827 -298.0123576874485 0
179 1 1 1 1 -229.5455606422945 278.4687657715656 0
180 1 1 1 1 326.3045598174326 301.2716995877992 0
181 1 1 1 1 -432.39471687755 -5.621840414894319 0
182 1 1 1 1 -118.7593379649094 162.4590665430267 0
183 1 1 1 1 272.1109174527645 128.5658943350201 0
184 1 1 1 1 457.9124207068069 -1.283925414088174 0
185 1 1 1 1 -41.57334860373901 91.47794739433049 0
186 1 1 1 1 -459.6467543280543 208.3768881366217 0
187 1 1 1 1 261.9106616989155 -145.2528547019888 0
188 1 1 1 1 268.7758009626909 74.84842537675654 0
189 1 1 1 1 -109.0720343570891 -22.43845927822897 0
190 1 1 1 1 -488.6582046393305 -75.27571166136553 0
191 1 1 1 1 -354.3324362300808 216.3813413637622 0
192 1 1 1 1 152.6459133036344 -218.1206845792861 0
193 1 1 1 1 -184.698614185867 43.62490650292835 0
194 1 1 1 1 57.58994287035145 -15.83201344177017 0
195 1 1 1 1 463.2454453099722 231.2002058815668 0
196 1 1 1 1 214.2512152642227 140.8371684048181 0
197 1 1 1 1 369.3614001980141 209.5789595280568 0
198 1 1 1 1 291.4100198573591 82.30089498201613 0
199 1 1 1 1 240.3927587267611 -165.0852665043124 0
200 1 1 1 1 -253.9273534850476 -195.5125707508279 0
201 1 1 1 1 210.6730163655345 -216.7235841204577 0
202 1 1 1 1 144.0260476470021 200.7917558158674 0
203 1 1 1 1 74.94228204779226 -210.8410799784921 0
204 1 1 1 1 258.1384435193637 -101.5657846758984 0
205 1 1 1 1 -102.9061169355529 -37.83933270332081 0
206 1 1 1 1 -162.9228876326191 168.1750126690723 0
207 1 1 1 1 166.1909903780234 143.917832357984 0
208 1 1 1 1 460.2152759756726 -294.9277524860777 0
209 1 1 1 1 -164.9411829234709 190.7007249028795 0
210 1 1 1 1 -190.7844094967999 157.071747657061 0
211 1 1 1 1 370.2237464101034 61.91750155333362 0
212 1 1 1 1 389.8843288359987 -24.27723934741412 0
213 1 1 1 1 413.4952813982072 264.2896533317941 0
214 1 1 1 1 -61.98609429540854 200.6185428244726 0
215 1 1 1 1 252.2487520824614 30.61377724505354 0
216 1 1 1 1 364.8447094051045 248.245414198232 0
217 1 1 1 1 440.9529106780338 283.4659834499798 0
218 1 1 1 1 199.5930935073444 -259.8601362960731 0
219 1 1 1 1 -204.0511246120634 12.17878452090496 0
220 1 1 1 1 366.3563149589708 -56.81291071740171 0
221 1 1 1 1 -460.101526536097 102.2217776910125 0
222 1 1 1 1 -383.2324370818335 7.850835617350042 0
223 1 1 1 1 -109.9259558676628 -288.6940942688286 0
224 1 1 1 1 -460.5270359057012 -43.02227565433911 0
225 1 1 1 1 498.6605737939897 283.3838599943756 0
226 1 1 1 1 399.459439475569 7.421937381478221 0
227 1 1 1 1 81.42201188337884 265.7065285604035 0
228 1 1 1 1 -350.6832426505387 130.8479419930969 0
229 1 1 1 1 -295.6856824108787 214.008864932645 0
230 1 1 1 1 -121.7368497984804 -101.0096542664061 0
231 1 1 1 1 203.8527793297164 -175.8867333188337 0
232 1 1 1 1 453.1921237844431 -126.7248106522127 0
233 1 1 1 1 11.88974746114798 -206.8229004944123 0
234 1 1 1 1 -377.1699497400742 -276.3853128596114 0
235 1 1 1 1 -394.5638479566892 259.5281569951787 0
236 1 1 1 1 310.5002152845346 114.7173519727125 0
237 1 1 1 1 451.4201593692841 -205.9480637422937 0
238 1 1 1 1 -11.58314230680645 -18.91477882006198 0
239 1 1 1 1 373.4527996596182 -173.909154764212 0
240 1 1 1 1 428.7282282356703 -115.8132536688779 0
241 1 1 1 1 54.91139454313265 157.0931074825502 0
242 1 1 1 1 -491.7273631466831 -273.9918819750245 0
243 1 1 1 1 -9.237360013955311 254.2282707630714 0
244 1 1 1 1 37.5545498241974 38.21356258896905 0
245 1 1 1 1 -50.52561807277641 -228.9449092600127 0
246 1 1 1 1 329.1087286513291 99.60761793748519 0
247 1 1 1 1 27.7915636282917 -143.1487412387505 0
248 1 1 1 1 454.1236259020308 264.902665078983 0
249 1 1 1 1 348.5025446168326 -38.45539303063161 0
250 1 1 1 1 386.8520313266716 -201.1929100185576 0
251 1 1 1 1 482.6770537649813 -148.3977325071941 0
252 1 1 1 1 502.2411806076185 268.1799990410853 0
253 1 1 1 1 114.6689311044733 -180.233459947892 0
254 1 1 1 1 182.4959237594245 255.4956160593877 0
255 1 1 1 1 404.1719556161436 -58.83303837894318 0
256 1 1 1 1 129.0711548335472 -278.1154194744167 0
257 1 1 1 1 -22.08632952326329 -39.46901047909949 0
258 1 1 1 1 479.163877525206 142.7852842360557 0
259 1 1 1 1 97.65753100578172 41.43359472844808 0
260 1 1 1 1 -275.0061650045363 1.305511600829419 0
261 1 1 1 1 -8.186258620929936 -153.9069723345193 0
262 1 1 1 1 -54.64309934422013 -270.6282547427135 0
263 1 1 1 1 -367.9065437425173 -230.3477004000342 0
264 1 1 1 1 -140.8132046539392 296.1372975912763 0
265 1 1 1 1 -375.1130689327444 -51.87176543359055 0
266 1 1 1 1 382.8102556733864 166.5582104752389 0
267 1 1 1 1 -130.2744863848684 278.3816324837562 0
268 1 1 1 1 267.3788876906543 -206.4582063743697 0
269 1 1 1 1 -216.6825259607454 -193.79450725906 0
270 1 1 1 1 167.9464266784599 -227.5192820477275 0
271 1 1 1 1 223.1201078160917 -249.9515442880913 0
272 1 1 1 1 -249.6695427662588 63.61254547355996 0
273 1 1 1 1 -195.4151624214179 -229.4869350940912 0
274 1 1 1 1 231.2863744596906 228.4547008377677 0
275 1 1 1 1 51.54608524885805 3.121493566404535 0
276 1 1 1 1 424.442701437065 -91.80880162436102 0
277 1 1 1 1 -342.2629232849043 232.8372233436388 0
278 1 1 1 1 335.8376296909116 169.0288810872861 0
279 1 1 1 1 -315.0124194993737 105.6393513611495 0
280 1 1 1 1 450.4601464885917 189.3359567977256 0
281 1 1 1 1 -245.5422274618845 -163.7326956404698 0
282 1 1 1 1 -450.2873698216088 10.29574808626369 0
283 1 1 1 1 102.4276368175669 -30.16595648766276 0
284 1 1 1 1 -350.6823609895393 186.6645816805429 0
285 1 1 1 1 -76.8122143236226 245.8466642934093 0
286 1 1 1 1 221.6949437781924 251.3533900291211 0
287 1 1 1 1 2.189208976595898 -168.3554761585148 0
288 1 1 1 1 -357.973310131176 -98.30821742038511 0
289 1 1 1 1 195.4981536830279 -200.1403692603461 0
290 1 1 1 1 -387.134265510464 -7.840010578247017 0
291 1 1 1 1 397.43999623069 166.4643870763873 0
292 1 1 1 1 -135.0240202278802 186.6512647495123 0
293 1 1 1 1 -381.6715811929066 69.72604090342685 0
294 1 1 1 1 -485.8722253793523 -231.4379601135051 0
295 1 1 1 1 -83.08468301526244 102.967462171538 0
296 1 1 1 1 -196.6498908868436 72.54596228252497 0
297 1 1 1 1 345.2648166952009 -145.6568658329275 0
298 1 1 1 1 371.8271232343147 -125.7955534927688 0
299 1 1 1 1 -329.7005800485073 -268.5194599673832 0
300 1 1 1 1 -161.7159739403766 -140.6173574613187 0
301 1 1 1 1 240.508581318609 282.4456912954953 0
302 1 1 1 1 368.5539831668495 135.6986304848558 0
303 1 1 1 1 23.16970185250316 38.9530842147099 0
304 1 1 1 1 82.43916508952543 -12.86534293845502 0
305 1 1 1 1 -15.18500029685808 149.0646458670676 0
306 1 1 1 1 308.7362921244186 8.636323526189079 0
307 1 1 1 1 -201.6768285340691 30.62988847002502 0
308 1 1 1 1 384.0086079500669 -215.3963118741554 0
309 1 1 1 1 132.4908183613539 -62.73563648356158 0
310 1 1 1 1 -137.5734595870076 26.15022729941019 0
311 1 1 1 1 -372.1112783649984 129.3368073142459 0
312 1 1 1 1 154.6926847666889 220.9613320317492 0
313 1 1 1 1 -147.1599660942242 -90.7091759155588 0
314 1 1 1 1 -411.9954046289127 142.5368088943657 0
315 1 1 1 1 -372.8094209105094 216.437059969387 0
316 1 1 1 1 -269.1066985514374 -242.1626434458252 0
317 1 1 1 1 379.5137330485495 29.73453443794087 0
318 1 1 1 1 -386.0052780985477 212.1882324343413 0
319 1 1 1 1 332.4888384094874 189.6433042657931 0
320 1 1 1 1 -112.9600540536802 260.6876035705279 0
321 1 1 1 1 -313.4048173410955 -7.468233992275361 0
322 1 1 1 1 88.13583426010106 181.5187888044723 0
323 1 1 1 1 311.3667615281065 143.2244543247813 0
324 1 1 1 1 -118.893531892872 201.5948357574959 0
325 1 1 1 1 -287.5036295947575 -243.2031873718019 0
326 1 1 1 1 -39.39235787629171 -76.84193942619825 0
327 1 1 1 1 -139.4107421057489 77.5216978667151 0
328 1 1 1 1 390.5552240201752 -290.2040591654486 0
329 1 1 1 1 -184.6116942138977 228.4638078498787 0
330 1 1 1 1 257.6365207927912 299.8812954488462 0
331 1 1 1 1 56.07681604381465 -151.5698261322478 0
332 1 1 1 1 -193.4751016528684 -6.470335185026556 0
333 1 1 1 1 -411.9201011430795 38.27343141908428 0
334 1 1 1 1 121.9402748539834 197.8994335537061 0
335 1 1 1 1 322.9528530927262 0.6092705107106837 0
336 1 1 1 1 117.8903540159014 137.4445963224413 0
337 1 1 1 1 458.1488220147421 67.70937527369948 0
338 1 1 1 1 -104.3175619903295 -272.0093356785373 0
339 1 1 1 1 -485.067491613671 74.44661795913532 0
340 1 1 1 1 242.2757478011322 175.2588157401502 0
341 1 1 1 1 382.5984780342766 -115.0301922680167 0
342 1 1 1 1 -374.2025237288668 143.8462518112474 0
343 1 1 1 1 132.576225650129 -128.6339606602803 0
344 1 1 1 1 400.3799304056693 127.1000700528507 0
345 1 1 1 1 202.1400529024777 -152.1416183241481 0
346 1 1 1 1 -463.3616784096045 -178.2560890265591 0
347 1 1 1 1 -178.5135510500266 -128.7573177270718 0
348 1 1 1 1 245.1537735516464 213.6569214061621 0
349 1 1 1 1 467.9057441635637 -273.3612218250843 0
350 1 1 1 1 190.8031422558827 282.2329072047157 0
351 1 1 1 1 358.5260009072678 172.3824010565786 0
352 1 1 1 1 145.3673937346192 77.05087965770746 0
353 1 1 1 1 17.28984358431809 208.6169903175899 0
354 1 1 1 1 329.8054695989708 -133.6836978431193 0
355 1 1 1 1 114.3466642791043 27.24183209131622 0
356 1 1 1 1 495.1417487534358 -102.3342395424126 0
357 1 1 1 1 409.2343581472994 235.508788834996 0
358 1 1 1 1 -238.3744209344787 -214.3479971739707 0
359 1 1 1 1 -159.8755476575304 -23.28207703567551 0
360 1 1 1 1 -298.8752222689967 289.2537786457765 0
361 1 1 1 1 503.6138592200089 -222.071308887053 0
362 1 1 1 1 67.94983138133483 35.91850422665833 0
363 1 1 1 1 -25.53191017344523 -3.641647796638358 0
364 1 1 1 1 -402.9189612437839 204.8249272204232 0
365 1 1 1 1 -475.8541240180173 -261.8942639847401 0
366 1 1 1 1 -230.7110191649498 -282.8299470372949 0
367 1 1 1 1 -200.5997060908717 202.1201253304213 0
368 1 1 1 1 483.2359441554596 -220.3065436500483 0
369 1 1 1 1 -79.18513742466898 -50.67968067512067 0
370 1 1 1 1 493.8600548368208 176.0087415463002 0
371 1 1 1 1 -187.0306602564336 -272.6977149381659 0
372 1 1 1 1 136.2911354364792 42.45579299835728 0
373 1 1 1 1 -55.68064845908631 -123.4902104990201 0
374 1 1 1 1 280.8599723719704 -40.64947163937879 0
375 1 1 1 1 -32.98086362655988 -293.3017019143727 0
376 1 1 1 1 421.7377356874558 69.53438548057288 0
377 1 1 1 1 424.7841790422287 -2.428361288311902 0
378 1 1 1 1 390.1892072663603 49.05516813887699 0
379 1 1 1 1 -434.2400895971119 -256.7221487200692 0
380 1 1 1 1 87.8118226533839 -50.0586023113049 0
381 1 1 1 1 71.09641959228446 -236.6087295291746 0
382 1 1 1 1 -79.89847315036919 229.4802513449884 0
383 1 1 1 1 108.7752110212885 235.6968866321315 0
384 1 1 1 1 -296.2784614661073 72.63848377638442 0
385 1 1 1 1 -208.8484805788792 -73.80146175027345 0
386 1 1 1 1 -283.0954829052865 -41.62064692081425 0
387 1 1 1 1 -243.4740122304575 75.88331813208011 0
388 1 1 1 1 -180.5090317476505 277.1227070912423 0
389 1 1 1 1 136.6946967612909 -190.5418701818541 0
390 1 1 1 1 367.0479762594952 287.208100735194 0
391 1 1 1 1 302.0323934429171 -85.80506262224014 0
392 1 1 1 1 -83.35798060360065 68.20377826905393 0
393 1 1 1 1 352.1627131432293 0.6879432016318048 0
394 1 1 1 1 -352.5295902145189 -53.8278850265211 0
395 1 1 1 1 80.26207191808265 279.4405262172664 0
396 1 1 1 1 -138.9833025202084 137.5060806827543 0
397 1 1 1 1 334.6762917545992 -190.2418156456888 0
398 1 1 1 1 -503.4558206256232 -8.71954668939158 0
399 1 1 1 1 16.99379000448036 -8.085290088975734 0
400 1 1 1 1 380.0052026802437 266.3081671744613 0
401 1 1 1 1 36.18550032023547 -109.0959301863577 0
402 1 1 1 1 261.1893506781635 225.9144026687126 0
403 1 1 1 1 -349.7632375631665 30.62111004405442 0
404 1 1 1 1 -156.9235885566842 217.3787515259906 0
405 1 1 1 1 -144.375946130539 -36.57665438826429 0
406 1 1 1 1 491.7093237477371 -126.2950992774874 0
407 1 1 1 1 483.9529791117406 -292.8139365168496 0
408 1 1 1 1 75.37643019587684 130.3784016279729 0
409 1 1 1 1 -260.7161476092256 200.1116063056978 0
410 1 1 1 1 -212.8569133986357 -223.0476638245378 0
411 1 1 1 1 -449.9784337704987 295.9197167395146 0
412 1 1 1 1 -340.63322811656 -120.1473240051522 0
413 1 1 1 1 87.65000312355339 -298.9925571079498 0
414 1 1 1 1 -299.9498695327874 -91.68805364752535 0
415 1 1 1 1 410.6133556492778 -177.31187878502 0
416 1 1 1 1 -31.04612725293937 -256.3403581772457 0
417 1 1 1 1 48.93327171576453 260.0749027685502 0
418 1 1 1 1 -464.4216379032409 -297.4424043589453 0
419 1 1 1 1 103.7501644592451 112.2813580209328 0
420 1 1 1 1 -299.6929535650748 -20.36430715480823 0
421 1 1 1 1 32.1058349383777 284.7864653508517 0
422 1 1 1 1 313.3080883640506 184.8534468365158 0
423 1 1 1 1 453.8130104177849 -251.4155724884129 0
424 1 1 1 1 -50.37879373581265 -170.5243863523355 0
425 1 1 1 1 25.00630614409006 100.7924862564248 0
426 1 1 1 1 368.8095420327302 5.601977845944066 0
427 1 1 1 1 15.39336879465655 -254.514495041496 0
428 1 1 1 1 245.0015250463178 13.53463395675476 0
429 1 1 1 1 18.44011998530797 -220.2939377809056 0
430 1 1 1 1 449.7093498259927 234.982067567151 0
431 1 1 1 1 -111.8851945954855 -149.6460997982158 0
432 1 1 1 1 63.93548602571328 293.0948099624877 0
433 1 1 1 1 159.0136086877421 -2.152382320480024 0
434 1 1 1 1 363.0002482284961 -157.0885564880536 0
435 1 1 1 1 -144.5560502232679 100.851100245068 0
436 1 1 1 1 -328.6682244004239 106.2013356236932 0
437 1 1 1 1 259.5674845112371 101.3900188562291 0
438 1 1 1 1 -259.8921600345391 0.9212147656773311 0
439 1 1 1 1 -73.48621765438112 -117.7799118191761 0
440 1 1 1 1 -179.893088964805 105.9797967916727 0
441 1 1 1 1 104.6121174576083 -150.2407759041404 0
442 1 1 1 1 -353.5907015923029 -299.5127461051605 0
443 1 1 1 1 133.9522125872934 119.2348904480753 0
444 1 1 1 1 -427.5611692170905 -272.6626254040928 0
445 1 1 1 1 202.627834551121 -89.54656051340618 0
446 1 1 1 1 94.24841553848438 -256.379838321908 0
447 1 1 1 1 146.8898020978756 -204.5264785482133 0
448 1 1 1 1 122.659454437315 95.53072273236197 0
449 1 1 1 1 -466.9752887055685 172.5763458058196 0
450 1 1 1 1 -191.8428737063702 254.7969827777244 0
451 1 1 1 1 -403.7927719067326 24.72996291653598 0
452 1 1 1 1 -76.36728298903198 85.78629063295615 0
453 1 1 1 1 282.3197381320624 71.66769402285387 0
454 1 1 1 1 -435.0332591490246 -162.5379182749595 0
455 1 1 1 1 -489.2639270164947 60.47731100207724 0
456 1 1 1 1 43.86359890611103 -26.15107218210051 0
457 1 1 1 1 434.6224248570284 -210.9564914154052 0
458 1 1 1 1 236.4854098113593 -244.6136692099823 0
459 1 1 1 1 411.2692144286405 119.0943552325605 0
460 1 1 1 1 -224.006517782453 -267.5119789455239 0
461 1 1 1 1 -212.395324834012 -180.8764951482899 0
462 1 1 1 1 -40.70666481849159 112.0870889301102 0
463 1 1 1 1 -381.8506806218489 43.88706954405333 0
464 1 1 1 1 -418.4472642059964 -60.84104619524114 0
465 1 1 1 1 -263.7126611025485 -223.7406048546622 0
466 1 1 1 1 -303.8168945419835 -34.90084209048644 0
467 1 1 1 1 277.9172882578891 -299.5674733399895 0
468 1 1 1 1 -198.4524366874319 181.0853228500913 0
469 1 1 1 1 -417.1493998148853 168.9513092415158 0
470 1 1 1 1 -13.75058155178463 -292.97534453454 0
471 1 1 1 1 -105.4374724004787 -170.221617950398 0
472 1 1 1 1 -396.1518531619546 -221.2917085592963 0
473 1 1 1 1 -88.52748135484097 -1.471685481022843 0
474 1 1 1 1 94.83522681199318 -271.8852257001922 0
475 1 1 1 1 -136.1612647568842 -214.7374597096334 0
476 1 1 1 1 -100.0611661570582 -140.712890321047 0
477 1 1 1 1 41.84841777127603 74.03468626667218 0
478 1 1 1 1 503.5146536289249 -264.9515948618703 0
479 1 1 1 1 -288.8470800957366 -284.741756546907 0
480 1 1 1 1 -168.6725137717228 264.3574177435047 0
481 1 1 1 1 501.4759533099842 -294.5388858924994 0
482 1 1 1 1 -456.7711726468074 -195.5810400641134 0
483 1 1 1 1 -149.766985978361 284.22476264545 0
484 1 1 1 1 -244.7735411156312 -239.2862727861072 0
485 1 1 1 1 -428.3349355575268 -77.44349315648923 0
486 1 1 1 1 43.15781316544055 -8.172819963190364 0
487 1 1 1 1 310.2104956485003 298.063548330032 0
488 1 1 1 1 332.1458751712565 -243.7702231296314 0
489 1 1 1 1 -330.4803782661438 60.14362129512724 0
490 1 1 1 1 442.8069909645083 84.18606707766804 0
491 1 1 1 1 130.3767693283542 82.42090481821002 0
492 1 1 1 1 -497.2080404482095 243.1880024633114 0
493 1 1 1 1 -336.4647086124235 155.3708569058884 0
494 1 1 1 1 -74.77601760929296 42.55707355143497 0
495 1 1 1 1 -366.90898348258 7.525174552559212 0
496 1 1 1 1 -477.1518464138803 -164.5857627258405 0
497 1 1 1 1 328.9611013018973 -301.0065790819043 0
498 1 1 1 1 -206.6955654873468 231.3055546694846 0
499 1 1 1 1 -342.8910221162826 -94.60289964096084 0
500 1 1 1 1 -186.2238879136237 -35.28952034422532 0
501 1 1 1 1 -142.1717036804943 -127.0336998719752 0
502 1 1 1 1 -474.9607411163714 -19.3780604247322 0
503 1 1 1 1 310.3087122684196 -15.68247419606723 0
504 1 1 1 1 440.0882858300797 -99.95706689875402 0
505 1 1 1 1 34.63380750538781 -262.4856033233884 0
506 1 1 1 1 338.2073176188715 59.11007408440468 0
507 1 1 1 1 -415.1587593427827 224.0645645432197 0
508 1 1 1 1 444.819334596794 -238.533370774634 0
509 1 1 1 1 -29.3576633017827 -217.7766147958031 0
510 1 1 1 1 -342.6714987105116 -162.431515437513 0
511 1 1 1 1 326.2965689738039 140.2151391558693 0
512 1 1 1 1 -125.0133712634892 -188.1497580440933 0
513 1 1 1 1 343.3130938807939 -277.6699759456327 0
514 1 1 1 1 468.5054108697515 -43.53363266639145 0
515 1 1 1 1 215.2680427381096 169.1146760014047 0
516 1 1 1 1 123.2303607445187 -79.35771012280992 0
517 1 1 1 1 -147.3686485684823 10.76704837393814 0
518 1 1 1 1 84.26333414498413 229.1548006356204 0
519 1 1 1 1 -386.4869532804561 -296.3082843326878 0
520 1 1 1 1 93.46709903858218 241.8708681998658 0
521 1 1 1 1 437.140607964939 151.9623662994 0
522 1 1 1 1 -69.35674099471122 257.0821768739819 0
523 1 1 1 1 85.47022005275296 33.85856718657502 0
524 1 1 1 1 488.8750112056035 52.61770538321361 0
525 1 1 1 1 -218.6777071835218 296.4074916032714 0
526 1 1 1 1 -25.87701355141504 -66.62140969042245 0
527 1 1 1 1 49.34899675219546 -262.2907875505219 0
528 1 1 1 1 0.8008386030090378 -113.886217889461 0
529 1 1 1 1 350.7842042078567 -101.2694676867147 0
530 1 1 1 1 274.9707898032054 232.9741105924075 0
531 1 1 1 1 448.257163873668 -162.3607374070287 0
532 1 1 1 1 289.6134184722174 46.06233306538368 0
533 1 1 1 1 -241.2484319714758 263.069210219577 0
534 1 1 1 1 27.16180213938384 -209.731284187422 0
535 1 1 1 1 227.0618950877361 6.965340131840258 0
536 1 1 1 1 -224.0495046563943 107.3555003844778 0
537 1 1 1 1 97.50967957947017 207.9195062070135 0
538 1 1 1 1 202.3389540562907 86.3556453583501 0
539 1 1 1 1 -13.53370784470371 113.3789349828121 0
540 1 1 1 1 -263.762166240033 -160.9880757844918 0
541 1 1 1 1 150.4612467173396 -80.96583164394014 0
542 1 1 1 1 -418.8913502862276 -20.09099633372087 0
543 1 1 1 1 282.3384547308651 -266.2392818667857 0
544 1 1 1 1 -46.05014816782446 126.0176736315438 0
545 1 1 1 1 -297.1091889132153 -131.1478146130461 0
546 1 1 1 1 -101.3122926715486 -195.9006499624258 0
547 1 1 1 1 -401.4861398814783 -129.1629820074146 0
548 1 1 1 1 -481.0583281285536 36.54058711063523 0
549 1 1 1 1 103.1602131110973 5.416235614822551 0
550 1 1 1 1 -121.6129342185672 -172.4832792578547 0
551 1 1 1 1 122.8827109479044 -146.4762666661252 0
552 1 1 1 1 33.21954673929649 -172.4397092157682 0
553 1 1 1 1 -432.0066719280516 137.148149259144 0
554 1 1 1 1 381.1620142134777 117.4793694888132 0
555 1 1 1 1 344.2167881639556 96.9709683988668 0
556 1 1 1 1 328.0773961235507 -96.68044477183095 0
557 1 1 1 1 -264.4099033315146 31.78766715685331 0
558 1 1 1 1 386.5610737109501 -242.2996101855279 0
559 1 1 1 1 108.4141668193967 190.2904650730765 0
560 1 1 1 1 466.6562800866379 36.56397247780856 0
561 1 1 1 1 122.7760305635165 -19.3473319780433 0
562 1 1 1 1 480.2178494704115 -238.3910324461568 0
563 1 1 1 1 -242.1728151250614 147.1138987212998 0
564 1 1 1 1 -27.97269365501961 96.1758267369739 0
565 1 1 1 1 -211.5988385262763 -122.4621856658946 0
566 1 1 1 1 -324.7965343572743 237.5145181637531 0
567 1 1 1 1 452.0352376554623 -178.7479475179893 0
568 1 1 1 1 -20.8448751435234 272.6176243880503 0
569 1 1 1 1 387.1248109127264 193.7246372100813 0
570 1 1 1 1 -186.6099407675603 57.43310524061819 0
571 1 1 1 1 194.4336923763556 -68.21680329812125 0
572 1 1 1 1 397.2431264139232 283.9244706130165 0
573 1 1 1 1 -360.9995730018433 115.4184368183701 0
574 1 1 1 1 491.2347329087598 -53.89624255221657 0
575 1 1 1 1 404.3952461653441 46.02214898002759 0
576 1 1 1 1 314.7877540928944 46.98055089725891 0
577 1 1 1 1 -171.8261816201436 246.8745741807432 0
578 1 1 1 1 141.8393969104619 -290.8188102363993 0
579 1 1 1 1 276.582200168923 7.614232268983385 0
580 1 1 1 1 196.7754539292599 128.755928962778 0
581 1 1 1 1 460.0952235525676 -143.3451569143925 0
582 1 1 1 1 -24.56843313606395 -138.6749329145056 0
583 1 1 1 1 -393.3818140591116 -185.3520658029441 0
584 1 1 1 1 498.7659750611725 66.96953203749112 0
585 1 1 1 1 -251.8710900985982 121.4310043096856 0
586 1 1 1 1 179.9386951417509 299.5037641332278 0
587 1 1 1 1 405.6774521308919 -40.92137340159734 0
588 1 1 1 1 249.5027454468011 -134.7281935488435 0
589 1 1 1 1 -96.73093872346037 46.30756880568774 0