

720 atoms
1740 bonds
1 atom types
1 bond types
-160 160 xlo xhi
-160 160 ylo yhi
-32 32 zlo zhi

Atoms #bpm/sphere

1 1 1 1 1 -151.4902304679404 -12.1257072310064 0
2 1 1 1 1 68.2182246717754 45.1431636285028 0
3 1 1 1 1 -32.28842207992379 134.1573487168934 0
4 1 1 1 1 131.937716283188 126.1187342262913 0
5 1 1 1 1 -3.111177525232961 -145.05006958022 0
6 1 1 1 1 145.6920727601578 -108.1584037193169 0
7 1 1 1 1 -82.56384465571639 -51.17636070847769 0
8 1 1 1 1 -85.73065815592813 65.91675122326552 0
9 1 1 1 1 -119.4526258048295 45.96507597385016 0
10 1 1 1 1 -9.368146828995236 130.5749131072998 0
11 1 1 1 1 -42.24482699440202 -96.03817285294096 0
12 1 1 1 1 95.91906640850232 23.14227065721954 0
13 1 1 1 1 -52.37180953249265 -123.1438775802111 0
14 1 1 1 1 58.71536441767671 19.13734382870535 0
15 1 1 1 1 117.9033668341562 -86.35848837708473 0
16 1 1 1 1 -32.40063511625102 37.28433245503086 0
17 1 1 1 1 -76.01137663694281 -14.6314393947344 0
18 1 1 1 1 -37.5894799804573 -2.143147207365558 0
19 1 1 1 1 -114.4688946360376 113.0561562860506 0
20 1 1 1 1 -127.2083870907798 -139.6654358588545 0
21 1 1 1 1 71.42840065604372 95.81124950633833 0
22 1 1 1 1 25.68302260306567 135.9798042219462 0
23 1 1 1 1 101.9727112648873 102.0107043913869 0
24 1 1 1 1 73.62181839591057 -115.7168160781986 0
25 1 1 1 1 96.63814289268424 66.41454827924269 0
26 1 1 1 1 23.81039610856729 41.57211900641383 0
27 1 1 1 1 157.0733635771093 -86.3332871864699 0
28 1 1 1 1 -47.74050472268232 -28.67808922665256 0
29 1 1 1 1 35.49657157857837 -129.5895285505699 0
30 1 1 1 1 37.77591331526864 44.58634830118285 0
31 1 1 1 1 64.09244074005258 -54.49757487067032 0
32 1 1 1 1 -106.9539998511694 -62.22882154294481 0
33 1 1 1 1 19.06834914671231 109.3639306994862 0
34 1 1 1 1 -158.029782778335 -4.205427367577386 0
35 1 1 1 1 99.79695604525995 -14.98997154446948 0
36 1 1 1 1 -105.2236272177695 9.413796674356121 0
37 1 1 1 1 -67.05228878029371 151.0052826404479 0
38 1 1 1 1 87.09868498081747 106.4619659293849 0
39 1 1 1 1 132.0380499118143 -64.24082112161625 0
40 1 1 1 1 156.9860864678515 155.5166248225999 0
41 1 1 1 1 52.53154809525554 70.24814119453896 0
42 1 1 1 1 60.55449145676886 150.5762405115959 0
43 1 1 1 1 -83.76136306356597 6.314281992902636 0
44 1 1 1 1 88.5219753783949 -37.85911742071363 0
45 1 1 1 1 -94.68925671027009 131.9613073486444 0
46 1 1 1 1 43.39348243585206 83.64131289227115 0
47 1 1 1 1 -64.22884046020812 -1.927756330920005 0
48 1 1 1 1 -156.7952713538089 -59.13179686183707 0
49 1 1 1 1 -102.7552010443841 -142.5420673733203 0
50 1 1 1 1 -14.49470480062882 -53.39871583698883 0
51 1 1 1 1 46.92084498906482 106.1943741621033 0
52 1 1 1 1 -14.68846121779666 -154.7388891573353 0
53 1 1 1 1 0.3469489182049301 -85.70330540287702 0
54 1 1 1 1 -24.99505482705584 -109.7381993945193 0
55 1 1 1 1 -88.95092726075634 -128.7518215522941 0
56 1 1 1 1 -34.46557739947568 123.5319761692454 0
57 1 1 1 1 34.05649208335089 144.8690719501346 0
58 1 1 1 1 -97.14701405933656 -156.3105564006483 0
59 1 1 1 1 -99.1680880323666 93.03452237060927 0
60 1 1 1 1 -153.8140289417831 49.96138419484058 0
61 1 1 1 1 85.42442579183015 -102.6262670589426 0
62 1 1 1 1 -114.2465575882742 -10.46496406775785 0
63 1 1 1 1 -31.86624382882485 7.898769383336742 0
64 1 1 1 1 125.0014624161378 -104.1485598812035 0
65 1 1 1 1 -105.3877428918757 103.7811244489582 0
66 1 1 1 1 146.5030291030289 78.59732222327051 0
67 1 1 1 1 27.86857820236889 3.604036130668248 0
68 1 1 1 1 -49.32950642577516 158.3709409805555 0
69 1 1 1 1 -52.73197098025636 39.46188497929961 0
70 1 1 1 1 -87.86400979379803 52.36247269750007 0
71 1 1 1 1 40.23879912136348 -54.54865431536071 0
72 1 1 1 1 -6.308114880536976 38.30018141556533 0
73 1 1 1 1 -16.46603257563385 -23.87593361035758 0
74 1 1 1 1 -51.06827814015236 -85.0708651297025 0
75 1 1 1 1 -109.6176220989783 154.0072159104613 0
76 1 1 1 1 158.1629143260952 55.98629951418727 0
77 1 1 1 1 116.2692271764307 -0.2576321566241404 0
78 1 1 1 1 143.8577212356159 -41.60910656699275 0
79 1 1 1 1 -101.1463725424484 -14.6655752253119 0
80 1 1 1 1 8.575644603669417 -143.099192817246 0
81 1 1 1 1 -127.3327385490589 100.4556137864998 0
82 1 1 1 1 -129.9113044775187 67.72793288243915 0
83 1 1 1 1 77.52917632164917 12.57792756589393 0
84 1 1 1 1 -95.57168927216327 31.60504660325535 0
85 1 1 1 1 33.00690485429382 114.0588519841749 0
86 1 1 1 1 -96.54508071348556 116.5399320709374 0
87 1 1 1 1 9.783541068335381 -27.29353703230007 0
88 1 1 1 1 86.29969358891739 -11.87986729103113 0
89 1 1 1 1 -6.288552572602526 -126.5886493149345 0
90 1 1 1 1 3.289446371001787 4.503210941758311 0
91 1 1 1 1 -132.1355871594449 142.2951492094489 0
92 1 1 1 1 119.3840886430479 -54.74753126650458 0
93 1 1 1 1 -63.81744717630582 74.99542684553856 0
94 1 1 1 1 41.80624862072395 132.4278920054264 0
95 1 1 1 1 -68.56180989424608 -75.23830577219823 0
96 1 1 1 1 16.51237546756022 -75.90125387605909 0
97 1 1 1 1 -102.8961969122337 -76.08751023958601 0
98 1 1 1 1 -43.60545700436482 61.45758336362377 0
99 1 1 1 1 -28.34538433443907 156.2724749792353 0
100 1 1 1 1 96.16520671816721 49.37774188524696 0
101 1 1 1 1 54.81964973381082 -15.71780753378758 0
102 1 1 1 1 124.9692762845918 38.13570089752474 0
103 1 1 1 1 -93.21569289150003 -31.96317897130325 0
104 1 1 1 1 -89.8354064377186 -118.2440174958093 0
105 1 1 1 1 -154.4988260905843 128.5368966862401 0
106 1 1 1 1 -2.874508932686467 22.84007095681559 0
107 1 1 1 1 -137.9049976003919 -117.263878906841 0
108 1 1 1 1 64.48999002250471 -151.1952294287667 0
109 1 1 1 1 40.62797719666619 154.6403395836647 0
110 1 1 1 1 -86.31672297865268 100.2438483184521 0
111 1 1 1 1 152.6866713059998 -125.6138365356092 0
112 1 1 1 1 121.1750623344757 66.59077815627199 0
113 1 1 1 1 16.94024496712925 18.79276801059785 0
114 1 1 1 1 16.27429073866523 -39.10279328986149 0
115 1 1 1 1 -118.8612078085494 -93.81200800057823 0
116 1 1 1 1 50.9676438108425 -110.4523717683843 0
117 1 1 1 1 -60.64469123609871 31.13752152005981 0
118 1 1 1 1 136.6079841464313 47.79162023058473 0
119 1 1 1 1 -48.50424463596187 -51.68369023033219 0
120 1 1 1 1 130.4975955938907 144.7522893158781 0
121 1 1 1 1 56.78018546202458 79.9864122781201 0
122 1 1 1 1 44.0241652437692 -86.91629033000119 0
123 1 1 1 1 136.1932820440953 -146.3547507608627 0
124 1 1 1 1 9.800875579510091 47.30688611978249 0
125 1 1 1 1 119.9963514432691 89.71167958660473 0
126 1 1 1 1 -55.02270157464724 127.7900249415118 0
127 1 1 1 1 -148.0981621435343 113.479660963553 0
128 1 1 1 1 -39.05502832032063 146.642097439658 0
129 1 1 1 1 -81.93078188668039 -107.0990286363512 0
130 1 1 1 1 52.08532709749892 -150.1527930491882 0
131 1 1 1 1 78.6976533417523 -81.19879258557674 0
132 1 1 1 1 -141.6577769535726 -2.761439126383891 0
133 1 1 1 1 27.855135653264 -117.3987071092244 0
134 1 1 1 1 -149.9279133471506 -129.9681497731593 0
135 1 1 1 1 -56.63547296718238 117.1062017400371 0
136 1 1 1 1 6.314554027338147 104.1942306368943 0
137 1 1 1 1 88.40362477361666 149.5236207134177 0
138 1 1 1 1 -29.88237217108087 -42.6160594139188 0
139 1 1 1 1 158.0674276246635 131.356071209825 0
140 1 1 1 1 -115.4601955992658 58.05377748686891 0
141 1 1 1 1 -56.30732937027396 -158.1368627596785 0
142 1 1 1 1 27.21285343468807 -37.85979195571876 0
143 1 1 1 1 -21.29672271069683 86.2258247915579 0
144 1 1 1 1 -159.1694311346394 21.15185735618073 0
145 1 1 1 1 64.41415408999757 -21.646239154791 0
146 1 1 1 1 0.7742740027708237 -19.49867286793872 0
147 1 1 1 1 -44.65777638091882 -72.0630065044984 0
148 1 1 1 1 -133.0432981826127 -33.35022810359047 0
149 1 1 1 1 133.9351671758074 -32.49683065736839 0
150 1 1 1 1 144.7990880709715 -97.44024874103488 0
151 1 1 1 1 132.1048575460462 2.54281396312561 0
152 1 1 1 1 -81.94101872076703 34.25900604294679 0
153 1 1 1 1 16.31216629934744 157.9573265646753 0
154 1 1 1 1 -66.87727971903055 -115.3865182738777 0
155 1 1 1 1 43.98485150198758 -134.1625467778477 0
156 1 1 1 1 92.31835525205031 133.7527090153233 0
157 1 1 1 1 -104.1307389458207 42.3880747664879 0
158 1 1 1 1 97.54677137060622 -131.1861528663801 0
159 1 1 1 1 5.006047316865704 -95.55736206113136 0
160 1 1 1 1 -74.63563469975912 -127.9217106703125 0
161 1 1 1 1 58.99477099186609 -104.0256021154159 0
162 1 1 1 1 65.7414132092882 28.72376652728261 0
163 1 1 1 1 55.53553776946603 159.7224235544817 0
164 1 1 1 1 -54.85382798773639 -43.78883770262654 0
165 1 1 1 1 130.9779583600844 -75.06762692791739 0
166 1 1 1 1 39.77743791916544 -71.91062152729053 0
167 1 1 1 1 -95.90885559025284 -4.050245024388516 0
168 1 1 1 1 49.06546629006112 -97.73588239307877 0
169 1 1 1 1 92.64110952918816 92.13664202806547 0
170 1 1 1 1 107.1271299570019 -23.2415027208848 0
171 1 1 1 1 44.01246967770868 60.46531351049532 0
172 1 1 1 1 -11.63225027340263 -99.61909967787214 0
173 1 1 1 1 88.3402865871881 37.87582257401465 0
174 1 1 1 1 55.73142744838233 -33.64371358725873 0
175 1 1 1 1 -148.6284771542251 -52.34014147892336 0
176 1 1 1 1 -99.48156788897433 77.07114010981445 0
177 1 1 1 1 -143.2392212048815 21.51087118895737 0
178 1 1 1 1 32.70675973504154 -61.17155575499399 0
179 1 1 1 1 -86.16785362386636 -60.25194571622083 0
180 1 1 1 1 107.7956043086252 -148.2240065432012 0
181 1 1 1 1 -26.81072729239156 50.992669736062 0
182 1 1 1 1 71.16621326786537 -95.11409546950378 0
183 1 1 1 1 -41.51613782766958 23.07876281096642 0
184 1 1 1 1 -21.03665979049174 19.93402383186208 0
185 1 1 1 1 1.593896504534257 -55.26770757420249 0
186 1 1 1 1 125.8793231285144 51.06985338632046 0
187 1 1 1 1 -11.79423088614388 16.46200990118106 0
188 1 1 1 1 95.317993572891 -110.3244270276882 0
189 1 1 1 1 157.0856944099777 144.9194533112563 0
190 1 1 1 1 126.6132501715343 113.5554164127306 0
191 1 1 1 1 22.489046230811 -86.62854156741645 0
192 1 1 1 1 96.54268494376015 79.84571864581523 0
193 1 1 1 1 -129.4510413226495 28.27139060552454 0
194 1 1 1 1 -153.1391942682667 -36.13350697024583 0
195 1 1 1 1 -33.13907094317958 -72.0806060802629 0
196 1 1 1 1 -27.58001389786486 -146.2119171134281 0
197 1 1 1 1 -145.3574601167302 -145.0210072477125 0
198 1 1 1 1 143.4747700272189 91.04746174370692 0
199 1 1 1 1 135.0272253107258 101.0673067994976 0
200 1 1 1 1 -103.3373269135268 -98.32416621659625 0
201 1 1 1 1 111.9285921802067 -12.96266058971315 0
202 1 1 1 1 -153.1964996684682 63.89761278923689 0
203 1 1 1 1 -140.6029948287809 -64.35403611064253 0
204 1 1 1 1 140.0385589653956 32.76150581590554 0
205 1 1 1 1 4.992009223659807 -124.0320602339907 0
206 1 1 1 1 -94.53776889800231 -50.55750607426288 0
207 1 1 1 1 -25.1213787768724 96.67484730022608 0
208 1 1 1 1 -70.62828171539657 28.80831432425771 0
209 1 1 1 1 -39.15682440419573 -39.11989622717269 0
210 1 1 1 1 -115.2144563959967 -135.0210012830399 0
211 1 1 1 1 -5.207491039071783 -72.09742819072585 0
212 1 1 1 1 136.9710622415782 -89.4241490325809 0
213 1 1 1 1 -67.51285625273144 114.9963013062873 0
214 1 1 1 1 101.9726130982953 128.1043416417349 0
215 1 1 1 1 106.6858970394761 -56.24448159366509 0
216 1 1 1 1 2.105384886115615 -135.3227940246393 0
217 1 1 1 1 -80.95743809009463 -145.4521192869792 0
218 1 1 1 1 -62.4908971478433 -148.7957858115324 0
219 1 1 1 1 -133.0857194777921 129.2913836498596 0
220 1 1 1 1 89.0531509731004 -60.01868071107384 0
221 1 1 1 1 -48.02203852687434 -111.5683218351702 0
222 1 1 1 1 51.63657594828305 124.8872599545737 0
223 1 1 1 1 71.41794720292779 -128.1434738813169 0
224 1 1 1 1 78.43492027764341 -45.53574208709129 0
225 1 1 1 1 52.09570198182797 48.86538132621513 0
226 1 1 1 1 12.11173010533366 33.71933907823683 0
227 1 1 1 1 13.40690618709729 -65.89892255787554 0
228 1 1 1 1 110.0032149297786 143.3823204536354 0
229 1 1 1 1 -11.81812281433761 -88.68060861774602 0
230 1 1 1 1 -4.834447653320694 86.62135458915429 0
231 1 1 1 1 -127.7114579747576 118.0747720421034 0
232 1 1 1 1 104.7565400181404 4.299777553290085 0
233 1 1 1 1 -48.97552201927968 110.5098961745973 0
234 1 1 1 1 159.3047955104544 7.588149417853117 0
235 1 1 1 1 77.54681928589446 59.92848173584838 0
236 1 1 1 1 -36.80910920759196 -134.5527274716246 0
237 1 1 1 1 38.52525978681683 -30.75878328682199 0
238 1 1 1 1 -134.7301195395279 -51.80032707097446 0
239 1 1 1 1 -141.6946552419652 86.20916298616896 0
240 1 1 1 1 -36.91295104618209 96.84155819375923 0
241 1 1 1 1 -136.3006140333429 14.11525231897349 0
242 1 1 1 1 100.1542011104981 -88.53981748161434 0
243 1 1 1 1 -74.332817196409 103.2624158824358 0
244 1 1 1 1 38.80244639336468 -157.9648384914695 0
245 1 1 1 1 -85.15996828272137 110.495266215459 0
246 1 1 1 1 19.61884375739857 -131.4840619443292 0
247 1 1 1 1 40.94398766511378 -108.7421015746664 0
248 1 1 1 1 102.5678905155525 -157.1770303473531 0
249 1 1 1 1 -159.914095959655 72.24818551856765 0
250 1 1 1 1 -126.0550771669497 57.71931364831096 0
251 1 1 1 1 -53.60841259134136 145.7419664196629 0
252 1 1 1 1 149.3825541098016 -19.75815537608861 0
253 1 1 1 1 -92.4029294555956 41.69567046682104 0
254 1 1 1 1 20.38629393431773 80.13559575846375 0
255 1 1 1 1 -100.982985061499 -123.6665072148914 0
256 1 1 1 1 77.47889950086719 -71.233563609518 0
257 1 1 1 1 157.8401929257254 -61.58964906252461 0
258 1 1 1 1 3.783410228837568 -108.0822429529245 0
259 1 1 1 1 -13.29262687088789 45.49387375350227 0
260 1 1 1 1 -89.70365439326351 -140.0420220114729 0
261 1 1 1 1 -140.1815597158158 68.24310478372615 0
262 1 1 1 1 -27.19392935870638 -62.2033991652437 0
263 1 1 1 1 -134.930080259353 -20.57811763130135 0
264 1 1 1 1 -152.2717862695641 30.87890278037773 0
265 1 1 1 1 27.56638942219132 -148.2904496224523 0
266 1 1 1 1 54.69574687902906 -77.87680831020246 0
267 1 1 1 1 154.4130386706215 -37.56236528129418 0
268 1 1 1 1 10.35509226229297 149.7970495916503 0
269 1 1 1 1 99.42092408939743 158.4040478044675 0
270 1 1 1 1 144.8491450807173 141.7735603773644 0
271 1 1 1 1 -137.2514972404048 57.47792367810888 0
272 1 1 1 1 68.89442604917858 -40.51597477383474 0
273 1 1 1 1 147.1514612303308 -29.42698779862781 0
274 1 1 1 1 -13.72285373813764 70.35668417344203 0
275 1 1 1 1 100.9782777900984 36.71129426414444 0
276 1 1 1 1 -14.67856049222445 56.3727170179146 0
277 1 1 1 1 2.167259060520195 -36.63010437840978 0
278 1 1 1 1 -62.10379423281864 -134.5101620772806 0
279 1 1 1 1 -72.65593414695289 -65.23968766347593 0
280 1 1 1 1 -158.3061950294072 -77.53985219292463 0
281 1 1 1 1 29.69405228827958 65.14133451697131 0
282 1 1 1 1 -60.79241045784663 62.60612835260275 0
283 1 1 1 1 83.59783491408263 -142.2606618186724 0
284 1 1 1 1 -26.95624926859062 66.71826764897034 0
285 1 1 1 1 121.5088248514206 -159.1771592603307 0
286 1 1 1 1 -51.71216741911117 90.36763240267567 0
287 1 1 1 1 135.5855926692145 71.98473652217393 0
288 1 1 1 1 144.6786402745745 152.3606452290111 0
289 1 1 1 1 -66.49607044454662 17.66525092015954 0
290 1 1 1 1 58.24366911767248 -93.77377648336395 0
291 1 1 1 1 -34.90057691722743 -24.4951761111231 0
292 1 1 1 1 139.8541566175672 119.0320858963659 0
293 1 1 1 1 -128.1548468747187 -89.67783249124085 0
294 1 1 1 1 113.6090779700388 27.98481956124158 0
295 1 1 1 1 -75.61162968804325 -94.59845825372767 0
296 1 1 1 1 -127.3313675294509 -107.1794813224979 0
297 1 1 1 1 66.86023271927235 80.61524107166574 0
298 1 1 1 1 -65.05496935283141 96.18269499902732 0
299 1 1 1 1 116.1555926553344 -136.3358834735615 0
300 1 1 1 1 108.5445254883747 -100.7788085913356 0
301 1 1 1 1 108.4298834601071 -82.13917921520402 0
302 1 1 1 1 127.4217282845239 -113.8910983115839 0
303 1 1 1 1 -157.1290833627396 92.73060116695987 0
304 1 1 1 1 -25.64448985603593 142.5399941050581 0
305 1 1 1 1 74.29557956109284 133.7513166201363 0
306 1 1 1 1 -17.72784029450366 107.9144269407693 0
307 1 1 1 1 76.43630544555594 -149.8364382342558 0
308 1 1 1 1 -118.3529111182804 -45.71191150614209 0
309 1 1 1 1 128.1957346311729 25.56045920945718 0
310 1 1 1 1 -31.92420974100671 85.92111836846891 0
311 1 1 1 1 -132.8109273436417 -6.583286868927473 0
312 1 1 1 1 -151.6336951893289 -154.6204296774611 0
313 1 1 1 1 7.586516060136546 135.4859978717369 0
314 1 1 1 1 38.71308403613784 32.42356696790935 0
315 1 1 1 1 -3.260338994039984 70.06629419126085 0
316 1 1 1 1 24.14998044973291 -19.84884105804073 0
317 1 1 1 1 -34.16931566765093 76.01130329113806 0
318 1 1 1 1 -118.9162955909034 137.5709472742119 0
319 1 1 1 1 -73.79743652607488 -152.5794919937124 0
320 1 1 1 1 -83.09486097818841 84.61934316624888 0
321 1 1 1 1 102.7702567690121 116.7169870419118 0
322 1 1 1 1 -77.79743907696265 135.9328188866143 0
323 1 1 1 1 111.6947990496532 -64.83366529424899 0
324 1 1 1 1 -88.88241207715431 -17.36890900629217 0
325 1 1 1 1 -147.8037402655816 152.6658838385622 0
326 1 1 1 1 -141.4915693432389 35.8151415869325 0
327 1 1 1 1 92.43246745332397 10.61223996634541 0
328 1 1 1 1 141.6497705695091 -70.38623471996945 0
329 1 1 1 1 -138.3274829528866 -82.9734810759355 0
330 1 1 1 1 -99.93790296687376 56.5119795571994 0
331 1 1 1 1 -114.9965190228972 -106.8607119949897 0
332 1 1 1 1 -23.73074616808827 -159.7314659429625 0
333 1 1 1 1 -71.21758585122751 -24.78709561030283 0
334 1 1 1 1 -120.4180298477309 31.79157286231273 0
335 1 1 1 1 -47.53969337991447 -5.884995607546387 0
336 1 1 1 1 -138.4198951524609 102.7226510318362 0
337 1 1 1 1 -110.2335478247664 -26.89405495521211 0
338 1 1 1 1 119.1332075495773 133.7642231637902 0
339 1 1 1 1 -81.31090778488186 -40.16502961769473 0
340 1 1 1 1 149.1689077528019 -152.558832335384 0
341 1 1 1 1 -109.3824853007934 -87.42107649990206 0
342 1 1 1 1 -102.8478239604623 -33.24604605946138 0
343 1 1 1 1 144.9805220856914 -142.3410397823285 0
344 1 1 1 1 -20.26428327373523 31.94023847156132 0
345 1 1 1 1 -54.0188782833859 12.25453657483365 0
346 1 1 1 1 -72.50697294957959 9.659000265966569 0
347 1 1 1 1 159.8773495200129 78.13789950955913 0
348 1 1 1 1 145.6199381389011 -56.61105692495778 0
349 1 1 1 1 47.54282128698856 93.07858508440671 0
350 1 1 1 1 -30.26930442526762 108.995050159206 0
351 1 1 1 1 0.8089816212565211 153.093279691982 0
352 1 1 1 1 -18.18672459076242 -38.93714241640222 0
353 1 1 1 1 -23.57955687371526 -136.7390313186152 0
354 1 1 1 1 -146.9545984930814 77.75901055259618 0
355 1 1 1 1 129.1676056818241 154.4169301005683 0
356 1 1 1 1 -157.8211432638362 -89.74572101550604 0
357 1 1 1 1 159.0765309794046 -108.8949139094815 0
358 1 1 1 1 -119.5238811202862 152.4948408648107 0
359 1 1 1 1 -22.47053189905506 75.22454191743878 0
360 1 1 1 1 11.28237477443798 93.82485475442849 0
361 1 1 1 1 91.0509138256775 -72.32037827169509 0
362 1 1 1 1 56.11117165637492 -124.0929345479801 0
363 1 1 1 1 -130.1701552963702 -66.06379792583073 0
364 1 1 1 1 75.91888764727074 71.38383223506185 0
365 1 1 1 1 -150.8628533548191 -100.6323105983701 0
366 1 1 1 1 106.6164765562211 72.59327829017144 0
367 1 1 1 1 11.28833518366153 124.043706815551 0
368 1 1 1 1 -113.6979618151736 73.20764692478807 0
369 1 1 1 1 26.74768794474818 14.96689277665752 0
370 1 1 1 1 49.59061988796378 -58.96381689090643 0
371 1 1 1 1 -139.6944774567297 -105.4413074173407 0
372 1 1 1 1 142.3167979482657 -12.20746849822962 0
373 1 1 1 1 117.0045511028368 45.22241673960963 0
374 1 1 1 1 133.5321358222354 -155.6570058517951 0
375 1 1 1 1 -60.44275879557937 -35.51250727819837 0
376 1 1 1 1 -21.250926776585 -120.1779884156375 0
377 1 1 1 1 -22.63799278211084 -9.17444587412524 0
378 1 1 1 1 66.06379539183334 57.76446168352157 0
379 1 1 1 1 -77.68485616923468 20.75832659128645 0
380 1 1 1 1 -96.41406013597653 -88.99070176480294 0
381 1 1 1 1 94.41602834176967 -150.5372630759259 0
382 1 1 1 1 81.76888589568301 -20.88487663053149 0
383 1 1 1 1 152.102480705432 41.22962817858362 0
384 1 1 1 1 -65.83068233094477 -44.15697807595788 0
385 1 1 1 1 -70.92379653396854 -138.5272541610671 0
386 1 1 1 1 119.1469469163268 157.5270347057249 0
387 1 1 1 1 -140.0013894700798 158.4562411954277 0
388 1 1 1 1 -12.21324738760129 142.8456480025168 0
389 1 1 1 1 -91.63627542165003 -98.09403296035771 0
390 1 1 1 1 -130.2652558578602 87.91542512926154 0
391 1 1 1 1 53.67954904701344 -48.04305918718775 0
392 1 1 1 1 107.9242507017768 -37.72341863079738 0
393 1 1 1 1 -119.7604804245098 16.99998902295195 0
394 1 1 1 1 23.58091172547597 30.31379419475132 0
395 1 1 1 1 116.3655908095434 -74.21490507173343 0
396 1 1 1 1 -13.10354607802989 -13.24581688612963 0
397 1 1 1 1 40.01251516501313 -19.76987753974959 0
398 1 1 1 1 91.40440927547507 -26.03689468951583 0
399 1 1 1 1 76.00250649999296 143.8067451749689 0
400 1 1 1 1 113.0657396657613 12.0021754334511 0
401 1 1 1 1 51.84161575632814 31.11390941482028 0
402 1 1 1 1 -147.667938215781 -24.72778059487837 0
403 1 1 1 1 22.91804021892503 -98.03072814292375 0
404 1 1 1 1 -78.6918488524955 -84.80407533824862 0
405 1 1 1 1 58.08740097026561 108.8613954310557 0
406 1 1 1 1 81.710139255223 92.53042425400693 0
407 1 1 1 1 7.631409209270117 66.20572902965074 0
408 1 1 1 1 45.73400927317832 145.3371433268119 0
409 1 1 1 1 -108.8637835732586 93.02545529396036 0
410 1 1 1 1 130.3912752965086 62.25141822285059 0
411 1 1 1 1 108.3297804389296 -128.5877982883303 0
412 1 1 1 1 -158.4945173201423 -121.0626417865884 0
413 1 1 1 1 149.7217383661359 60.57149443153631 0
414 1 1 1 1 -99.62314312973589 -108.6838138804763 0
415 1 1 1 1 84.06909097515529 122.7850625599445 0
416 1 1 1 1 35.2916831986785 -98.90907344251524 0
417 1 1 1 1 -63.33749181918395 -85.55543695171946 0
418 1 1 1 1 2.367442495471948 -159.4299442584851 0
419 1 1 1 1 -123.8013366723897 2.640277403818203 0
420 1 1 1 1 77.54971428839082 27.96968914512308 0
421 1 1 1 1 125.8195629674578 -124.007608184406 0
422 1 1 1 1 156.131195376792 -10.57217061803237 0
423 1 1 1 1 144.2090746616611 131.4123136063176 0
424 1 1 1 1 3.925392831248445 -8.994915909301682 0
425 1 1 1 1 -71.87070165589752 84.89697927982894 0
426 1 1 1 1 65.84592903380209 8.795146040854661 0
427 1 1 1 1 62.81833064360359 67.43091131609035 0
428 1 1 1 1 -148.7053826786002 -79.60132465714554 0
429 1 1 1 1 -118.9672097776291 126.9923382162408 0
430 1 1 1 1 141.6106608998738 -127.5140599357347 0
431 1 1 1 1 -138.3420611635666 -159.1949388203277 0
432 1 1 1 1 153.4487985031216 109.6984567871041 0
433 1 1 1 1 36.04645824665695 91.17778535847776 0
434 1 1 1 1 -101.0316778424074 149.0006532063549 0
435 1 1 1 1 -21.26045778909855 122.4618375240657 0
436 1 1 1 1 140.6596046110853 22.37094202591632 0
437 1 1 1 1 -110.2243820175631 -1.49985253248451 0
438 1 1 1 1 -107.3694692203642 32.86984977673819 0
439 1 1 1 1 -113.3107121892522 -154.494089356412 0
440 1 1 1 1 24.09031742150034 51.90695889485079 0
441 1 1 1 1 1.981733101025299 119.6006890796699 0
442 1 1 1 1 80.21831085306385 -31.71168166052649 0
443 1 1 1 1 72.9652528066236 -12.66472615831785 0
444 1 1 1 1 -85.28237938720861 -7.800757546925013 0
445 1 1 1 1 59.31913473482896 38.76531044460793 0
446 1 1 1 1 -40.34687682385655 51.46053636348339 0
447 1 1 1 1 82.82962659600184 47.75013484685911 0
448 1 1 1 1 -94.86965218907812 -70.62760019015236 0
449 1 1 1 1 66.78961635447749 114.2487998572906 0
450 1 1 1 1 115.0078737142746 -46.07678293071267 0
451 1 1 1 1 37.83743254560721 15.31827334732057 0
452 1 1 1 1 13.16706956737875 0.8836625084137779 0
453 1 1 1 1 10.30029977148928 113.3538525660944 0
454 1 1 1 1 126.4483528313802 -15.83041096877307 0
455 1 1 1 1 110.3899586947771 82.86555685360628 0
456 1 1 1 1 15.79106022292993 -119.3833979877977 0
457 1 1 1 1 120.7744969232425 78.87011806401316 0
458 1 1 1 1 -99.24971322449316 66.41497903113677 0
459 1 1 1 1 -46.143795980242 -155.1861239549362 0
460 1 1 1 1 -13.486311804368 -136.3319764341769 0
461 1 1 1 1 69.60241909748828 154.4525165007858 0
462 1 1 1 1 -34.94480448900362 -107.2545672875498 0
463 1 1 1 1 111.5590480639847 110.8134007155409 0
464 1 1 1 1 48.75134926749016 1.411667586705562 0
465 1 1 1 1 -92.65055327976017 156.6863063788309 0
466 1 1 1 1 120.5348338631169 -146.48502330605 0
467 1 1 1 1 107.6192575726744 51.01293607275664 0
468 1 1 1 1 -124.4467168322224 -14.60962439804575 0
469 1 1 1 1 -75.93597329395386 59.50622477665109 0
470 1 1 1 1 -73.53661015924004 48.94833924131495 0
471 1 1 1 1 -114.2591627462342 83.50578979157788 0
472 1 1 1 1 -40.71532518073863 -82.24178969576016 0
473 1 1 1 1 -83.28894508986913 -71.16096647964383 0
474 1 1 1 1 11.87578256050372 -49.82749397132878 0
475 1 1 1 1 117.6024186973174 -117.8683845963966 0
476 1 1 1 1 62.95843170929686 -69.44131439346503 0
477 1 1 1 1 -60.35291205580546 -23.09536679799723 0
478 1 1 1 1 -52.98537652902053 23.79169731687756 0
479 1 1 1 1 -153.1036314405493 -111.2628781122686 0
480 1 1 1 1 -142.9261524923364 45.97704844200319 0
481 1 1 1 1 -12.14183276253175 -111.2183582534551 0
482 1 1 1 1 23.87026619104137 -9.108464788235409 0
483 1 1 1 1 -43.91221235488018 7.832662128357953 0
484 1 1 1 1 -81.18238958453276 120.4517452545182 0
485 1 1 1 1 145.8476224901549 0.2098459036567419 0
486 1 1 1 1 -88.83274884126152 142.9821561899476 0
487 1 1 1 1 85.47941979686829 -90.48648630961378 0
488 1 1 1 1 86.82776759786407 74.91105323437193 0
489 1 1 1 1 84.33805631346132 -125.7832624908231 0
490 1 1 1 1 14.84592946683046 -16.04524626173753 0
491 1 1 1 1 111.2382305953172 98.79688163641555 0
492 1 1 1 1 99.69844748375533 -43.06374049992108 0
493 1 1 1 1 19.86395295709883 147.394360995008 0
494 1 1 1 1 -44.22253130640118 76.73365977151718 0
495 1 1 1 1 15.32257627984131 -106.8478558401779 0
496 1 1 1 1 -98.56904761427849 19.44969046005963 0
497 1 1 1 1 -144.948356678785 -91.85253445392974 0
498 1 1 1 1 133.0932621022912 15.43528282128767 0
499 1 1 1 1 14.03238681484822 57.12601916043008 0
500 1 1 1 1 -138.2284303082751 -128.9600260563916 0
501 1 1 1 1 -159.2231888970007 140.6885256575451 0
502 1 1 1 1 -55.70912505200219 81.13618714842036 0
503 1 1 1 1 -133.0430026313372 76.82075005777662 0
504 1 1 1 1 -41.3422773877128 -58.97335218565158 0
505 1 1 1 1 145.2132044489235 10.76634810123292 0
506 1 1 1 1 38.19425695666351 -3.502968975311489 0
507 1 1 1 1 130.3576389580259 -46.59458175190572 0
508 1 1 1 1 74.89960648069621 -59.84547030869234 0
509 1 1 1 1 -33.1303164578274 -12.65266428802292 0
510 1 1 1 1 69.29704056661396 124.2116522410344 0
511 1 1 1 1 155.2979236104658 -98.49489398017781 0
512 1 1 1 1 -57.06643302896808 -59.88898156903417 0
513 1 1 1 1 124.3017561380963 -28.36933568493734 0
514 1 1 1 1 -105.5865307960166 131.9587795687789 0
515 1 1 1 1 -55.24414451433242 51.19629735296837 0
516 1 1 1 1 -117.3660353725114 -33.74692998488534 0
517 1 1 1 1 153.7811660876316 28.59902805258557 0
518 1 1 1 1 -39.51168886557639 112.1882791787423 0
519 1 1 1 1 -124.1415972990419 -53.56550519501184 0
520 1 1 1 1 -139.2543296434672 119.8048279601908 0
521 1 1 1 1 138.0424443608836 -21.56193561912522 0
522 1 1 1 1 -22.32822036608536 -87.24809527786067 0
523 1 1 1 1 -60.25324052164291 159.0777295410596 0
524 1 1 1 1 -13.90885118649774 154.7756362509476 0
525 1 1 1 1 40.6107764986412 -147.9575808163149 0
526 1 1 1 1 -77.29606732805007 -1.363660285505659 0
527 1 1 1 1 -114.5557382648976 -76.87604890934736 0
528 1 1 1 1 148.8018992837638 50.31357000557341 0
529 1 1 1 1 99.89854513267954 -4.840090947424983 0
530 1 1 1 1 -43.2721746420529 -126.4997785237994 0
531 1 1 1 1 62.20615752553027 -140.1794105167715 0
532 1 1 1 1 25.95209245055415 -159.7219937275032 0
533 1 1 1 1 23.80335743946699 91.56992785635117 0
534 1 1 1 1 -3.294021071742122 102.3461855776418 0
535 1 1 1 1 159.5444118672739 -26.05990409162189 0
536 1 1 1 1 -134.4146330287795 3.686624724439838 0
537 1 1 1 1 122.5183979207183 101.1296609407785 0
538 1 1 1 1 58.83667121262025 -5.467372962117736 0
539 1 1 1 1 -155.6081311286158 6.404133340969395 0
540 1 1 1 1 -159.8755909651776 -137.1393026185529 0
541 1 1 1 1 8.547409186003051 84.52502265204006 0
542 1 1 1 1 -5.849803199762533 -29.16259400523188 0
543 1 1 1 1 -14.61202416018781 -79.3226122744796 0
544 1 1 1 1 23.1749170138994 -63.37263767187039 0
545 1 1 1 1 -41.67896891151034 -144.5333218841668 0
546 1 1 1 1 -20.08863704398917 -70.76550692897254 0
547 1 1 1 1 -52.55895250881676 -133.2557250977616 0
548 1 1 1 1 -124.3684303485073 -151.4645099852124 0
549 1 1 1 1 60.33667235387452 132.6625513900736 0
550 1 1 1 1 129.4423854611182 83.73867525813358 0
551 1 1 1 1 -2.120174664314504 -117.1809548469349 0
552 1 1 1 1 -73.77055863044305 70.08951671004709 0
553 1 1 1 1 -5.135877528468768 52.91795483152737 0
554 1 1 1 1 26.41388801408181 157.0618043416538 0
555 1 1 1 1 -78.89525272684207 151.1125944301243 0
556 1 1 1 1 96.47837753896005 -53.63551888518977 0
557 1 1 1 1 -25.86851373564178 -19.26280308918066 0
558 1 1 1 1 -158.6760393696826 118.6878419486265 0
559 1 1 1 1 -6.597767552256784 7.350150502594317 0
560 1 1 1 1 -87.58384379774623 21.05549192128379 0
561 1 1 1 1 99.78228899988903 143.8802570352369 0
562 1 1 1 1 21.88357202440898 -52.96540589482308 0
563 1 1 1 1 112.6180399571178 123.3653630069842 0
564 1 1 1 1 104.6448091484823 -114.4917192131898 0
565 1 1 1 1 34.47442116818945 -88.6107977779951 0
566 1 1 1 1 -2.446180487708261 139.9986793008406 0
567 1 1 1 1 32.62988514536971 -46.85687303565859 0
568 1 1 1 1 64.68734181524894 -84.266767781678 0
569 1 1 1 1 92.33563818556078 117.6307888856869 0
570 1 1 1 1 44.95654647189843 -119.8535658802848 0
571 1 1 1 1 -115.676880150617 -121.7218310649163 0
572 1 1 1 1 -21.57660305583389 133.2349879442683 0
573 1 1 1 1 152.7160668732489 -73.20317240783304 0
574 1 1 1 1 -147.0486964963863 134.9304264416143 0
575 1 1 1 1 -58.02802390956546 -110.3129430863139 0
576 1 1 1 1 -158.0578028591981 105.5743782902982 0
577 1 1 1 1 157.7631521462379 -159.6135746711597 0
578 1 1 1 1 -56.29798661254685 -98.29816138640427 0
579 1 1 1 1 98.68453694425364 -78.92271924994766 0
580 1 1 1 1 15.63529577799773 -152.7033776603524 0
581 1 1 1 1 87.11840542902365 58.57947363664508 0
582 1 1 1 1 78.67064406048661 -0.915992831259473 0
583 1 1 1 1 -21.69915410907734 4.557612868834468 0
584 1 1 1 1 -62.16841950754578 136.5276428631936 0
585 1 1 1 1 -26.54228882855483 -30.62262300662695 0
586 1 1 1 1 -83.05711330248577 -29.94591896901034 0
587 1 1 1 1 147.9865536639447 -82.26543479496155 0
588 1 1 1 1 56.5473987057664 59.99177714520059 0
589 1 1 1 1 -107.5170802692597 -50.16616647728623 0