

1631 atoms
4489 bonds
1 atom types
1 bond types
-240 240 xlo xhi
-240 240 ylo yhi
-32 32 zlo zhi

Atoms #bpm/sphere

1 1 1 1 1 -122.5137066570065 -158.2122561058395 0
2 1 1 1 1 54.62857315218832 -105.4766452706933 0
3 1 1 1 1 173.95955884912 190.3619880731361 0
4 1 1 1 1 37.38916794953343 -63.21856804676906 0
5 1 1 1 1 38.16043797736353 -8.524495913698303 0
6 1 1 1 1 -54.6071085040081 -167.1840826132795 0
7 1 1 1 1 9.255611830367826 227.1376192719649 0
8 1 1 1 1 201.3213891667862 -195.1630935809244 0
9 1 1 1 1 111.4256641883288 237.9128028375997 0
10 1 1 1 1 29.64683981764546 -135.6415712212315 0
11 1 1 1 1 168.2913066160588 33.46059557753779 0
12 1 1 1 1 196.8117041799106 102.9839011165585 0
13 1 1 1 1 -207.7494672732101 174.9526969221724 0
14 1 1 1 1 -53.17156902206995 -124.8788657319726 0
15 1 1 1 1 65.12165464076236 165.1603080470513 0
16 1 1 1 1 -190.59145431372 34.78644155230961 0
17 1 1 1 1 -233.4368030557016 183.5790667429023 0
18 1 1 1 1 -58.19524217701235 35.23739950044961 0
19 1 1 1 1 -216.5108290763185 -73.0074652928763 0
20 1 1 1 1 -213.9406924166065 -216.6468579223225 0
21 1 1 1 1 -96.01378776818336 57.80728620080123 0
22 1 1 1 1 215.2293346321405 -158.2589990087509 0
23 1 1 1 1 -167.977596594663 158.5884411816903 0
24 1 1 1 1 -9.006272219527943 237.5780419600453 0
25 1 1 1 1 -234.2808726010208 -186.4648839116564 0
26 1 1 1 1 -228.5613723052604 -80.7795029144859 0
27 1 1 1 1 22.26291940985783 -213.9311241833189 0
28 1 1 1 1 6.478284609451293 -163.4647610646819 0
29 1 1 1 1 32.58175941894268 -230.4109623792802 0
30 1 1 1 1 133.5840565070404 167.0227334675708 0
31 1 1 1 1 -15.33968802023136 91.52662541361229 0
32 1 1 1 1 110.3990602848005 74.80967210146451 0
33 1 1 1 1 6.029041650785473 -23.34895869550508 0
34 1 1 1 1 -212.5325787905858 36.0217331605005 0
35 1 1 1 1 189.3656528626285 -124.7387845876929 0
36 1 1 1 1 -27.56173005545912 -97.47533490606577 0
37 1 1 1 1 205.899044706498 62.70365600022114 0
38 1 1 1 1 -196.6547471811495 224.546337641937 0
39 1 1 1 1 231.5971848103619 48.4572449788584 0
40 1 1 1 1 -148.9319205033767 123.2561983487237 0
41 1 1 1 1 221.6471860309701 -0.4541379951097326 0
42 1 1 1 1 149.7527648085991 142.5364625544008 0
43 1 1 1 1 79.22082888484238 -174.7382813232592 0
44 1 1 1 1 36.71901789428318 10.87073520407134 0
45 1 1 1 1 -237.1379370560878 25.06602727228022 0
46 1 1 1 1 -179.4282808791498 167.9924472864623 0
47 1 1 1 1 64.06481358542987 -135.4847636808076 0
48 1 1 1 1 -117.813996860226 -47.17117672228915 0
49 1 1 1 1 -13.65697111129228 -39.16595803554532 0
50 1 1 1 1 -27.04698623802915 -174.4959548731148 0
51 1 1 1 1 27.57927886077516 -165.3026149076238 0
52 1 1 1 1 -124.9331367866983 -124.3986777266102 0
53 1 1 1 1 103.8385449727569 181.9228833577815 0
54 1 1 1 1 -146.1952927578558 66.62414606902126 0
55 1 1 1 1 231.2642067131496 59.05300055636906 0
56 1 1 1 1 -14.15526325973218 168.0643855466162 0
57 1 1 1 1 -90.45368855821275 88.79036564732655 0
58 1 1 1 1 177.8579474769612 8.683667722723669 0
59 1 1 1 1 239.2587806896011 -93.23473962279871 0
60 1 1 1 1 -91.55917096417568 169.3074006106302 0
61 1 1 1 1 -138.3049322579318 -155.5417363740595 0
62 1 1 1 1 -84.2552309212785 64.2091356453771 0
63 1 1 1 1 -113.3880872555631 -220.2190376164653 0
64 1 1 1 1 -34.74253173973972 53.09251797106617 0
65 1 1 1 1 -95.17762086823356 109.5265157276865 0
66 1 1 1 1 119.6519253986293 -82.46641801452549 0
67 1 1 1 1 -15.26772159259838 -123.3451953526322 0
68 1 1 1 1 92.87220255491263 -162.1736196024768 0
69 1 1 1 1 65.46183415297673 -39.26082613138925 0
70 1 1 1 1 100.355930647013 132.7474371637689 0
71 1 1 1 1 -160.8712436880879 94.73191981174415 0
72 1 1 1 1 54.0785748349179 99.75768782768313 0
73 1 1 1 1 -191.121530997467 130.2505679509748 0
74 1 1 1 1 -229.8676874183394 -145.3268057031248 0
75 1 1 1 1 -116.6146261533783 -237.4236437128159 0
76 1 1 1 1 -106.8290072761912 210.5939184420075 0
77 1 1 1 1 -1.465541780519317 -120.1861006525934 0
78 1 1 1 1 -30.43841339861549 172.5273156527696 0
79 1 1 1 1 -170.2595896935239 130.6206071860479 0
80 1 1 1 1 -134.5314890824236 -233.4131641116063 0
81 1 1 1 1 -123.1444850760388 201.5596969863378 0
82 1 1 1 1 -20.34091690116074 -147.1211791952386 0
83 1 1 1 1 -35.50368852995075 207.425959264078 0
84 1 1 1 1 -68.98622343474275 181.1914114483798 0
85 1 1 1 1 39.79418066194705 -80.01873548678975 0
86 1 1 1 1 -59.29026077076341 146.6067955711676 0
87 1 1 1 1 165.4114716307764 135.6189791615937 0
88 1 1 1 1 236.0203383434871 126.5073891750101 0
89 1 1 1 1 232.5750990775311 29.31650983471206 0
90 1 1 1 1 219.3075429879099 114.4073146963207 0
91 1 1 1 1 -31.0029716675871 -121.7042739087592 0
92 1 1 1 1 52.46963079244563 -161.9274915390749 0
93 1 1 1 1 4.906270376562588 -185.5330099997418 0
94 1 1 1 1 26.38369737510635 -120.7540160175271 0
95 1 1 1 1 114.9117223571556 139.6056943916402 0
96 1 1 1 1 147.8368670738038 -201.1983662640228 0
97 1 1 1 1 215.9935494071187 128.8413886143623 0
98 1 1 1 1 -184.1423121038615 2.266833640843629 0
99 1 1 1 1 -114.3711495455146 218.8950355118629 0
100 1 1 1 1 -91.91410662570155 229.2610142470029 0
101 1 1 1 1 140.6697999899947 -143.7262189925023 0
102 1 1 1 1 192.3385709575635 -151.8153253573197 0
103 1 1 1 1 235.7496021181064 236.7661813438719 0
104 1 1 1 1 -71.14804846564789 34.16447669161687 0
105 1 1 1 1 -79.54366457888605 165.1100977960838 0
106 1 1 1 1 115.0347108689847 -146.4858551159311 0
107 1 1 1 1 -49.452318942088 80.0887487093529 0
108 1 1 1 1 212.8201825779815 150.6751661333117 0
109 1 1 1 1 -233.6403283823088 -67.30675630610537 0
110 1 1 1 1 -235.2653960113011 41.82948717141795 0
111 1 1 1 1 152.6241863121693 -188.2823725434366 0
112 1 1 1 1 69.13008158354063 86.19318402564147 0
113 1 1 1 1 -127.5138491801757 -188.698832493892 0
114 1 1 1 1 -25.97437769012078 38.27613778638226 0
115 1 1 1 1 45.56258763821654 174.9456088300395 0
116 1 1 1 1 -7.33333673879892 -26.09255982709618 0
117 1 1 1 1 -173.2201894320715 -179.6543894935822 0
118 1 1 1 1 188.7882538910881 233.4685041847283 0
119 1 1 1 1 238.7945137659889 94.84229187269898 0
120 1 1 1 1 146.0170146420265 -232.3652492278863 0
121 1 1 1 1 -82.03488018100506 -208.0143036366108 0
122 1 1 1 1 -105.1472101301949 -209.1621260901778 0
123 1 1 1 1 -74.69129619719922 -35.39296714485522 0
124 1 1 1 1 148.8049161454918 -46.1467609667356 0
125 1 1 1 1 -147.6768290323625 -162.6515447953397 0
126 1 1 1 1 -21.59407685508867 158.6249936187694 0
127 1 1 1 1 173.1740275288997 -180.7399772366564 0
128 1 1 1 1 138.6848017650856 78.77782187563679 0
129 1 1 1 1 78.45295196804284 -61.97120780100903 0
130 1 1 1 1 -29.77897755386255 0.1637762768195898 0
131 1 1 1 1 -232.2251225225271 157.2441516857076 0
132 1 1 1 1 20.37428441345634 173.016633569304 0
133 1 1 1 1 105.5020212223945 -114.6092765693411 0
134 1 1 1 1 -163.4333901648769 225.2856099258644 0
135 1 1 1 1 -153.2547648014334 73.43061462645477 0
136 1 1 1 1 176.7403759156823 20.20102067701049 0
137 1 1 1 1 -86.38737567738468 -54.20744255171283 0
138 1 1 1 1 -7.945659025103083 105.0510156649385 0
139 1 1 1 1 -45.0738670508365 -195.0849672353381 0
140 1 1 1 1 69.86667635079448 142.5003770697419 0
141 1 1 1 1 -10.61458280261763 -183.4808019047321 0
142 1 1 1 1 103.8580859652517 -149.3226484942443 0
143 1 1 1 1 118.6604110416714 -63.35968775501297 0
144 1 1 1 1 -113.5856507937235 -130.3864391757697 0
145 1 1 1 1 155.0795029197244 -214.3425620745562 0
146 1 1 1 1 -191.4474986894438 -90.54984422197873 0
147 1 1 1 1 -108.0501868018682 -196.3547032331539 0
148 1 1 1 1 68.14310170929559 106.5515160656772 0
149 1 1 1 1 91.09311129097381 196.8047763153565 0
150 1 1 1 1 41.72894890049281 -189.8044312591369 0
151 1 1 1 1 -233.2797893299334 2.556122282711101 0
152 1 1 1 1 25.34998350017423 214.0421694238914 0
153 1 1 1 1 -106.9924241372474 -175.4043785110132 0
154 1 1 1 1 173.3367250053923 -224.6744546276037 0
155 1 1 1 1 -224.2526608720811 -237.8055882012441 0
156 1 1 1 1 33.12159658845087 54.28928943987029 0
157 1 1 1 1 -71.99872013906273 -56.59542875148765 0
158 1 1 1 1 215.534521856397 -34.29882367016032 0
159 1 1 1 1 -115.7958612408376 -73.78158898601887 0
160 1 1 1 1 -74.28580667215635 -168.9840785517039 0
161 1 1 1 1 49.01982654918618 16.10186639795864 0
162 1 1 1 1 -74.27175904782112 -115.5019202645752 0
163 1 1 1 1 184.3050564365065 -94.25578897138004 0
164 1 1 1 1 -109.9989947466065 14.53606062945175 0
165 1 1 1 1 -178.8353640005796 -236.6200442153519 0
166 1 1 1 1 171.2375222950511 -50.03025273108344 0
167 1 1 1 1 -229.5908227919711 -159.0290393522777 0
168 1 1 1 1 112.6430369675922 -20.98084212614174 0
169 1 1 1 1 100.535146793281 -173.418170950023 0
170 1 1 1 1 -125.2933693935937 -84.66026568212914 0
171 1 1 1 1 43.15383617473998 45.65445531309524 0
172 1 1 1 1 232.0420831287187 -236.5177742981622 0
173 1 1 1 1 107.3611904146729 193.433274460672 0
174 1 1 1 1 -19.59661819319169 -16.51814740751445 0
175 1 1 1 1 -181.1960172284165 -46.54700482990623 0
176 1 1 1 1 209.0394879435108 93.07126047591737 0
177 1 1 1 1 7.5811648104428 -137.5848863545535 0
178 1 1 1 1 118.991317020992 66.30260753733506 0
179 1 1 1 1 -164.1866590099415 -134.6681497843318 0
180 1 1 1 1 -153.7808033846978 54.2912909786242 0
181 1 1 1 1 138.5435146913721 -46.80913372281739 0
182 1 1 1 1 -205.6378624046074 -2.778805591755997 0
183 1 1 1 1 84.26852791976637 -79.31013163537847 0
184 1 1 1 1 -87.36108810903798 -141.5198028171911 0
185 1 1 1 1 -168.669053767048 171.4351414200053 0
186 1 1 1 1 -32.40804044011765 132.9208531097223 0
187 1 1 1 1 -6.120058457132473 194.6249472818524 0
188 1 1 1 1 225.4101868824382 -98.90779255470099 0
189 1 1 1 1 237.3331126037916 -217.0796125590922 0
190 1 1 1 1 139.121884418549 107.762076650477 0
191 1 1 1 1 -222.8135086129345 -106.3469962325006 0
192 1 1 1 1 46.47575340026441 202.4016374328074 0
193 1 1 1 1 136.5357656577514 185.7671443106121 0
194 1 1 1 1 -94.19973677848594 -114.4950300321033 0
195 1 1 1 1 -220.7007904179045 -189.4521012534053 0
196 1 1 1 1 -210.9011115100299 -205.6174307658416 0
197 1 1 1 1 -56.63302200491034 -107.7016479979855 0
198 1 1 1 1 165.7249113897476 -7.756411238411516 0
199 1 1 1 1 171.038927490441 -235.8264463739768 0
200 1 1 1 1 138.9603669820231 -62.14018230620161 0
201 1 1 1 1 -108.9509106551559 0.9436512861707911 0
202 1 1 1 1 -5.279125204716166 41.90413018478597 0
203 1 1 1 1 92.627272108439 172.513530110865 0
204 1 1 1 1 217.0214121511381 -120.7641534748762 0
205 1 1 1 1 -157.0710863119629 -208.7904518786588 0
206 1 1 1 1 -85.28293835231085 -98.70056040008146 0
207 1 1 1 1 93.55594053469082 229.2962712825506 0
208 1 1 1 1 -221.4002331425701 157.9167681109332 0
209 1 1 1 1 -54.50470082568796 6.161420993241961 0
210 1 1 1 1 203.8808618673588 -119.1198205811048 0
211 1 1 1 1 175.0139229504881 114.6170185658569 0
212 1 1 1 1 -189.9956339720279 -27.14705378084378 0
213 1 1 1 1 101.47072420552 22.9842863719382 0
214 1 1 1 1 -145.2932244589614 89.58624401379245 0
215 1 1 1 1 42.37774042677484 -54.33900073975346 0
216 1 1 1 1 -190.5884035424305 23.26142195532185 0
217 1 1 1 1 199.131734994604 -181.7130938180093 0
218 1 1 1 1 -104.3373332347788 136.8864432856745 0
219 1 1 1 1 -106.2184311306858 228.3940082869563 0
220 1 1 1 1 -223.4462967942209 -18.91685081058083 0
221 1 1 1 1 214.1832318491417 -214.0635614183774 0
222 1 1 1 1 200.5108934838772 195.1166461652109 0
223 1 1 1 1 87.54755103384809 2.957756331760208 0
224 1 1 1 1 -106.5192080113632 148.5448723804886 0
225 1 1 1 1 59.43134950432591 -56.42746464872548 0
226 1 1 1 1 191.2237894600202 126.0521480723893 0
227 1 1 1 1 -11.13614765909819 143.1968666378016 0
228 1 1 1 1 227.0461269857188 -18.00710268080087 0
229 1 1 1 1 154.8167824371054 235.0733696651151 0
230 1 1 1 1 67.6251689101282 -186.1928105330037 0
231 1 1 1 1 -52.68609753179345 116.8873096841505 0
232 1 1 1 1 -197.9463256389488 -39.16922816007104 0
233 1 1 1 1 -11.94650044561084 -223.9478886905618 0
234 1 1 1 1 -235.0366058737191 -44.23214648197958 0
235 1 1 1 1 -43.71949320811052 -131.6935098064106 0
236 1 1 1 1 105.1003292358747 -101.1504229008981 0
237 1 1 1 1 -236.8775672527452 -56.13238780302731 0
238 1 1 1 1 -18.26473482451826 -210.478096525082 0
239 1 1 1 1 53.63061008918231 -128.6915675135475 0
240 1 1 1 1 204.030796500267 184.1064736943439 0
241 1 1 1 1 -216.9826125697401 -83.67393714902508 0
242 1 1 1 1 -219.4593374694577 220.2467240996248 0
243 1 1 1 1 207.4785429195739 16.76523954642647 0
244 1 1 1 1 -48.5935169242222 225.8725705010688 0
245 1 1 1 1 -200.5793398080929 -179.0656503262875 0
246 1 1 1 1 -64.07344691298238 -92.93898349938013 0
247 1 1 1 1 -140.6401474333804 -145.0400942826782 0
248 1 1 1 1 -51.0865486367918 104.0418423325148 0
249 1 1 1 1 8.69043607089742 -116.6213709957225 0
250 1 1 1 1 83.3451243496321 -220.9664007196458 0
251 1 1 1 1 158.5324624146004 167.0716732736763 0
252 1 1 1 1 -192.7414932684009 -224.1301307442562 0
253 1 1 1 1 -120.5257325126716 -11.41733176871494 0
254 1 1 1 1 30.17723163347569 -145.6552610434944 0
255 1 1 1 1 -150.922636986663 43.71415456841385 0
256 1 1 1 1 -144.9589895395844 187.6796366494015 0
257 1 1 1 1 -114.3690801238647 -24.03669976856494 0
258 1 1 1 1 -232.9042025249493 197.7494029090333 0
259 1 1 1 1 45.79687460041589 -172.066599179605 0
260 1 1 1 1 -173.8912425493742 -155.650633078369 0
261 1 1 1 1 -83.90280601124417 -169.0044545088532 0
262 1 1 1 1 -109.8424678708021 120.792309943292 0
263 1 1 1 1 102.6687285908354 154.3152577449339 0
264 1 1 1 1 -159.913405492274 -68.37286471276909 0
265 1 1 1 1 -172.4863740163283 -169.62644231863 0
266 1 1 1 1 32.06010413199397 -71.49695536294115 0
267 1 1 1 1 209.2139350424297 120.9500511108863 0
268 1 1 1 1 193.9372691921992 -238.6958715699203 0
269 1 1 1 1 218.6553728881836 -108.7704633238697 0
270 1 1 1 1 216.2717257259943 -236.4532614055805 0
271 1 1 1 1 -76.63952991249766 221.075147574549 0
272 1 1 1 1 225.9077653043834 -146.343795022489 0
273 1 1 1 1 157.6315263794701 -32.66337956746253 0
274 1 1 1 1 119.3565575354437 -114.4526851831909 0
275 1 1 1 1 -89.43940615249088 -20.7835988634061 0
276 1 1 1 1 131.4720831701454 -227.2366095673215 0
277 1 1 1 1 48.70885249400362 148.822767137942 0
278 1 1 1 1 140.45111314383 139.0002308727792 0
279 1 1 1 1 -217.1192085498728 142.7990301851594 0
280 1 1 1 1 65.23089575576324 63.42135956727225 0
281 1 1 1 1 -10.17231385245734 -156.8389089318905 0
282 1 1 1 1 138.7643328832976 -131.8711859920627 0
283 1 1 1 1 -94.41834380379814 -162.7600611060702 0
284 1 1 1 1 -229.3579675555805 216.1233585488167 0
285 1 1 1 1 170.1439196009217 155.2735988491642 0
286 1 1 1 1 -88.50406625463518 178.7461744989403 0
287 1 1 1 1 45.58985351065888 66.23386173034305 0
288 1 1 1 1 49.78191656402453 -46.54971257277779 0
289 1 1 1 1 -162.9449938745221 -17.63111704038954 0
290 1 1 1 1 -125.0190154495345 72.90708014976167 0
291 1 1 1 1 -128.8808479109072 -35.73402645737158 0
292 1 1 1 1 -157.8210649568419 104.6192473428869 0
293 1 1 1 1 -85.64279719489528 50.68843232842141 0
294 1 1 1 1 125.7906324629797 233.717243448754 0
295 1 1 1 1 118.5870408974129 13.14866800313885 0
296 1 1 1 1 215.2070637804526 -10.60373902868602 0
297 1 1 1 1 74.47623305174636 215.402446239314 0
298 1 1 1 1 10.03988994160642 76.83498619672486 0
299 1 1 1 1 199.7741958509382 53.79750455467911 0
300 1 1 1 1 67.93169148960891 -124.4454608092192 0
301 1 1 1 1 68.26896329729306 -211.9853033273889 0
302 1 1 1 1 109.669940526833 85.64283921771465 0
303 1 1 1 1 -55.29182180137013 161.9083925729153 0
304 1 1 1 1 -138.8617428213965 125.815903674713 0
305 1 1 1 1 6.867975852705996 -63.79122870276652 0
306 1 1 1 1 189.725102568254 195.2283528597924 0
307 1 1 1 1 190.7216519731037 -172.0750147435943 0
308 1 1 1 1 102.8594564323905 106.8207657622456 0
309 1 1 1 1 -75.20498417465259 235.200079526675 0
310 1 1 1 1 126.6947613811323 209.2565528454559 0
311 1 1 1 1 -84.06635241603968 211.2479848598301 0
312 1 1 1 1 13.30360357557635 166.2223842732643 0
313 1 1 1 1 76.23923936480327 32.86239648650059 0
314 1 1 1 1 36.54539237926952 119.5512828666086 0
315 1 1 1 1 -28.11610435354626 71.12888059539569 0
316 1 1 1 1 -189.6267989814304 -144.3265013317118 0
317 1 1 1 1 -155.8626224885726 -155.1526762417331 0
318 1 1 1 1 135.9656691345001 49.7523530858715 0
319 1 1 1 1 15.06850864023735 -47.78417644572221 0
320 1 1 1 1 -32.69793366958001 183.6613539046507 0
321 1 1 1 1 29.00505009933232 -26.64780870135758 0
322 1 1 1 1 133.0778362386714 -195.1420292879656 0
323 1 1 1 1 163.6620970219686 187.5493817168605 0
324 1 1 1 1 182.7525568389779 -15.20419174845776 0
325 1 1 1 1 183.7590324191959 142.111970202801 0
326 1 1 1 1 182.6424665315354 -68.83743974481976 0
327 1 1 1 1 99.06568664076434 -225.1253030222273 0
328 1 1 1 1 -140.6546349880895 44.40242555316684 0
329 1 1 1 1 102.5503966659343 120.3115834497179 0
330 1 1 1 1 -200.4183284065545 -207.8317268550157 0
331 1 1 1 1 205.7273538296359 33.84893464020075 0
332 1 1 1 1 -1.256950291731357 25.98945894245139 0
333 1 1 1 1 -158.6827364130571 -28.60404451285152 0
334 1 1 1 1 -155.3647919147543 -107.1003914829604 0
335 1 1 1 1 126.9704673394024 -8.326496774773943 0
336 1 1 1 1 -228.0354303211325 -208.0353554207845 0
337 1 1 1 1 -7.622799624269675 71.78270257584319 0
338 1 1 1 1 -108.1571195291457 62.03354708408222 0
339 1 1 1 1 -165.2207723773041 200.0991037746933 0
340 1 1 1 1 128.9663525110712 -44.39601084375559 0
341 1 1 1 1 -160.7348714245526 5.245141427429928 0
342 1 1 1 1 220.409280371687 62.14810219749126 0
343 1 1 1 1 -156.2312677145039 190.065242852839 0
344 1 1 1 1 22.42828607035517 -230.1259483002593 0
345 1 1 1 1 -203.903016397404 13.93305040138901 0
346 1 1 1 1 -237.6888840439509 170.3374164930658 0
347 1 1 1 1 -86.2807133256305 12.38541076150855 0
348 1 1 1 1 130.0943793968544 -25.11626510437378 0
349 1 1 1 1 -44.9307622001929 -16.67442397082834 0
350 1 1 1 1 155.471115724071 222.19240688682 0
351 1 1 1 1 78.88331958228503 -194.7007405711131 0
352 1 1 1 1 -196.7188707068491 -127.1909874853687 0
353 1 1 1 1 -95.85418176092281 -150.6533443113774 0
354 1 1 1 1 82.20895414894483 100.1719852218071 0
355 1 1 1 1 95.70024174507273 86.62531872165385 0
356 1 1 1 1 -204.8368315548764 -133.6485125171077 0
357 1 1 1 1 80.81843777352725 235.5411201319978 0
358 1 1 1 1 216.7554753393009 -171.7749341575946 0
359 1 1 1 1 -76.23737198275646 -25.49092474996581 0
360 1 1 1 1 -4.179183099081143 208.2728509783868 0
361 1 1 1 1 239.6538506788811 -195.2938378855094 0
362 1 1 1 1 225.0566862478873 40.67146815169264 0
363 1 1 1 1 -107.8834961677471 -79.30839446846124 0
364 1 1 1 1 -16.39356482752959 -79.93372568366101 0
365 1 1 1 1 222.4683130096708 75.62981371428413 0
366 1 1 1 1 17.16601782998839 39.17001111321008 0
367 1 1 1 1 168.8400116541126 -208.435893046423 0
368 1 1 1 1 23.07414683539668 192.7407566500212 0
369 1 1 1 1 197.1468792088277 -25.88656148764957 0
370 1 1 1 1 109.3447516118842 53.07577558301142 0
371 1 1 1 1 92.60371794029192 212.722670741965 0
372 1 1 1 1 -70.30353454322696 -227.6955722877751 0
373 1 1 1 1 54.09422337039376 233.5967131501001 0
374 1 1 1 1 -239.3626356428548 -114.2320908757923 0
375 1 1 1 1 31.01022610821042 204.6295166255662 0
376 1 1 1 1 -67.36665721796345 -129.7464760869596 0
377 1 1 1 1 -48.98658388702091 236.1553170073756 0
378 1 1 1 1 74.97357198714008 115.1501240908712 0
379 1 1 1 1 -93.64905977355417 -125.504969862586 0
380 1 1 1 1 176.8948229605286 98.09485162585815 0
381 1 1 1 1 -125.7385921805366 158.8591224463099 0
382 1 1 1 1 11.57725592703602 -230.1006277226742 0
383 1 1 1 1 -197.4768587593205 -9.942939347147444 0
384 1 1 1 1 -70.49376208908114 63.75890391501974 0
385 1 1 1 1 -182.2915368286174 -110.4954585321657 0
386 1 1 1 1 218.7502179109422 164.8168651425281 0
387 1 1 1 1 -49.99622406095301 -58.70264961192251 0
388 1 1 1 1 122.9455655603241 -185.2536922714351 0
389 1 1 1 1 -110.5437721633631 92.31301711352017 0
390 1 1 1 1 132.3679745254486 37.35130696038999 0
391 1 1 1 1 -15.8397590075879 -5.711003893915034 0
392 1 1 1 1 -198.9389689875729 -101.314585375948 0
393 1 1 1 1 156.582211175541 -62.99712792250176 0
394 1 1 1 1 162.1797347803707 107.9178454320865 0
395 1 1 1 1 120.5688766618744 -227.6021250154986 0
396 1 1 1 1 234.2722397244391 -69.11994060780853 0
397 1 1 1 1 62.95963697992647 212.1499874456547 0
398 1 1 1 1 182.6446819630453 -213.1909715538156 0
399 1 1 1 1 29.42920126639103 -80.83410577771198 0
400 1 1 1 1 -114.775932429509 184.2065031158428 0
401 1 1 1 1 -106.1095402617691 -103.9590353086581 0
402 1 1 1 1 -178.8680180417701 -74.11891392974209 0
403 1 1 1 1 -192.8403505174575 184.0836832909146 0
404 1 1 1 1 221.9458919585053 238.3392283338038 0
405 1 1 1 1 3.775348531742708 14.62519066984751 0
406 1 1 1 1 119.162917010042 176.3442565756328 0
407 1 1 1 1 -121.0500054565999 236.3397554787797 0
408 1 1 1 1 103.5934893766352 -51.25042855769186 0
409 1 1 1 1 133.2174299730912 -110.1855267886137 0
410 1 1 1 1 -170.5531525511762 34.20616416779347 0
411 1 1 1 1 -60.95824310869892 -209.2936871505225 0
412 1 1 1 1 -73.19047829867392 -150.3343888189051 0
413 1 1 1 1 180.1499255013789 -187.4690414384125 0
414 1 1 1 1 -52.12021064125906 -178.7893656496926 0
415 1 1 1 1 120.920064474748 -155.0400573325828 0
416 1 1 1 1 -179.1668207872694 -213.5264515146663 0
417 1 1 1 1 98.26746536097647 -32.62673455705033 0
418 1 1 1 1 64.20189964131197 -91.68238471813996 0
419 1 1 1 1 -119.7860518565993 116.8935099542608 0
420 1 1 1 1 -18.47597011592742 178.3799458769398 0
421 1 1 1 1 234.5242045998168 0.6214242865069366 0
422 1 1 1 1 -185.6812035418139 -174.4722968778284 0
423 1 1 1 1 -105.0235516771283 195.1399187721431 0
424 1 1 1 1 -129.1958395519424 -201.2711483741651 0
425 1 1 1 1 138.3579323003448 -86.00720623333731 0
426 1 1 1 1 143.9214169790431 -94.34197631101625 0
427 1 1 1 1 23.05119855014357 121.0048874131898 0
428 1 1 1 1 -207.1883332623825 62.41961273756135 0
429 1 1 1 1 -202.076012937302 146.5691323814581 0
430 1 1 1 1 202.2140212720223 162.0638828933523 0
431 1 1 1 1 106.6174757091496 216.7435576099472 0
432 1 1 1 1 61.77076697460825 79.3320690219449 0
433 1 1 1 1 97.7653395615726 40.49584609855515 0
434 1 1 1 1 43.2711520646119 35.62513151680417 0
435 1 1 1 1 -4.948678495053855 219.2233102930288 0
436 1 1 1 1 -214.357539287552 -14.21519655067473 0
437 1 1 1 1 65.82109611299364 200.8340924727808 0
438 1 1 1 1 -79.08015109298572 -178.5422685044871 0
439 1 1 1 1 -196.1183245286335 -198.1175287989575 0
440 1 1 1 1 -31.79932478345057 219.0811693878425 0
441 1 1 1 1 -106.3146387547258 -164.8459284857176 0
442 1 1 1 1 158.9817879994087 148.2736168413715 0
443 1 1 1 1 -188.601202990409 205.3996826358627 0
444 1 1 1 1 -182.9506246035497 145.6893807066754 0
445 1 1 1 1 62.224396954523 124.5680346385781 0
446 1 1 1 1 31.00948800423697 237.9697119020301 0
447 1 1 1 1 -234.6121327195247 114.8216579292913 0
448 1 1 1 1 46.8116329794014 225.66497148966 0
449 1 1 1 1 -162.7268504831627 78.46714948631347 0
450 1 1 1 1 196.1864436977215 -76.4326742931699 0
451 1 1 1 1 -163.0716316703911 -218.7086446939339 0
452 1 1 1 1 81.61357282683673 -147.1196834443552 0
453 1 1 1 1 15.23264130470176 156.0474702936257 0
454 1 1 1 1 -42.14837216159464 194.4914834259568 0
455 1 1 1 1 224.9008977861298 139.3430500930138 0
456 1 1 1 1 126.1390083538113 -125.3163587251342 0
457 1 1 1 1 32.06207421614192 -54.71364468762727 0
458 1 1 1 1 35.95908004949757 27.86032937027448 0
459 1 1 1 1 -225.8165312752119 -96.24392323224617 0
460 1 1 1 1 25.92078182852265 -189.6711342405586 0
461 1 1 1 1 -9.872310766292685 -142.8289424402008 0
462 1 1 1 1 31.4667287710563 175.1585150811908 0
463 1 1 1 1 111.4603248714724 -56.93569687363373 0
464 1 1 1 1 -71.80176043150738 80.41447062715349 0
465 1 1 1 1 141.2992507819444 214.4585346697352 0
466 1 1 1 1 -174.9228911182071 -197.1846106738824 0
467 1 1 1 1 235.5795491707472 -29.51130385476185 0
468 1 1 1 1 156.9641580875714 9.818482545503912 0
469 1 1 1 1 185.9630721140819 89.75065228248354 0
470 1 1 1 1 77.2421309236866 53.56202790005273 0
471 1 1 1 1 -27.93639009166458 -109.1939754019791 0
472 1 1 1 1 3.29817429833713 125.3534481318912 0
473 1 1 1 1 44.75117084847182 -124.5505220820269 0
474 1 1 1 1 -43.45877807561789 -167.1803852999127 0
475 1 1 1 1 -64.89182556413309 207.243832820276 0
476 1 1 1 1 66.95576715093313 38.85879370339211 0
477 1 1 1 1 215.1535923543328 31.16401260622069 0
478 1 1 1 1 100.7089099596318 77.36050175698779 0
479 1 1 1 1 39.63793078892809 -134.9548307389486 0
480 1 1 1 1 -41.26582662642076 105.067915278775 0
481 1 1 1 1 56.48839782882101 203.1974911522254 0
482 1 1 1 1 27.91054792749708 223.3016078685394 0
483 1 1 1 1 220.613058792555 -192.6047399930607 0
484 1 1 1 1 134.0009297497803 -95.24920503194838 0
485 1 1 1 1 161.6225292122265 -42.10659054635886 0
486 1 1 1 1 6.170383069898236 -197.2650065688396 0
487 1 1 1 1 186.0382255628698 211.2543600302592 0
488 1 1 1 1 -17.33828523881962 65.28577382841536 0
489 1 1 1 1 4.488446528157056 213.6352275431985 0
490 1 1 1 1 226.5208851665037 13.38688229243189 0
491 1 1 1 1 72.68585596663814 -53.53709548889009 0
492 1 1 1 1 -54.61523353495994 19.48929664727842 0
493 1 1 1 1 91.18644376290786 -139.0532771827136 0
494 1 1 1 1 -195.2670749866123 157.8262840625746 0
495 1 1 1 1 193.6360891582407 -48.25456247038767 0
496 1 1 1 1 -138.7547898175404 -206.4338539611539 0
497 1 1 1 1 194.3043689824337 -133.2075031419535 0
498 1 1 1 1 -81.74460546988345 35.79065504387233 0
499 1 1 1 1 -205.1428677673032 -161.395674741406 0
500 1 1 1 1 -180.1796218000305 -127.1934076144989 0
501 1 1 1 1 -76.34614191005846 146.8162591619852 0
502 1 1 1 1 84.45817576084738 224.6527532722833 0
503 1 1 1 1 237.7380311555175 -80.99474690146087 0
504 1 1 1 1 94.66548462891569 -129.7030645589563 0
505 1 1 1 1 47.62531590271374 -152.0990172545686 0
506 1 1 1 1 -50.23737428296332 211.7183354060704 0
507 1 1 1 1 -141.7593876455973 75.29661196998609 0
508 1 1 1 1 71.04817802594494 -233.1782136262867 0
509 1 1 1 1 -70.96249956508123 -139.0201275519441 0
510 1 1 1 1 -79.39738114491036 -2.349309963428283 0
511 1 1 1 1 18.63874333637443 -102.5958004910753 0
512 1 1 1 1 -34.75215895648532 -235.3495004698825 0
513 1 1 1 1 -181.1262678935501 102.0274838192868 0
514 1 1 1 1 -173.7180938191343 -1.639742820998407 0
515 1 1 1 1 212.5571296599099 -57.22151846811823 0
516 1 1 1 1 -97.54229508304138 -201.2896082169915 0
517 1 1 1 1 -197.4161133355367 111.6461686867228 0
518 1 1 1 1 -2.936323249925323 179.0528095890095 0
519 1 1 1 1 55.48175853660541 -116.9739206215009 0
520 1 1 1 1 -217.6465208892222 95.76413371501502 0
521 1 1 1 1 182.010078011179 -231.6453399392523 0
522 1 1 1 1 -114.2248966547761 81.41952181833562 0
523 1 1 1 1 -142.8135094017218 -34.35331316531691 0
524 1 1 1 1 126.4272393996067 -163.1350609961382 0
525 1 1 1 1 177.4423887520772 170.8073594764445 0
526 1 1 1 1 154.1533966967538 -156.3810617687707 0
527 1 1 1 1 -170.994964712802 232.1738517269916 0
528 1 1 1 1 -132.9253334605991 237.5038098522565 0
529 1 1 1 1 -1.882692537130339 -7.434135699506498 0
530 1 1 1 1 167.7170766945586 227.141714771163 0
531 1 1 1 1 52.51436602206383 82.77853357371526 0
532 1 1 1 1 -121.1101325327425 103.9802573333326 0
533 1 1 1 1 -219.4873520822623 118.4501097204869 0
534 1 1 1 1 -74.18733960109677 91.15907480957941 0
535 1 1 1 1 200.0934595353831 -89.97610169292381 0
536 1 1 1 1 154.1087077735157 -104.704731483988 0
537 1 1 1 1 163.7593371420102 -226.8044203846298 0
538 1 1 1 1 -43.674650267647 -44.57648155692536 0
539 1 1 1 1 38.80188527360309 220.1627413099146 0
540 1 1 1 1 -34.303351573751 -38.45333220360897 0
541 1 1 1 1 0.09806820747726874 -52.49350093651523 0
542 1 1 1 1 -67.65161708497806 -105.7757767394565 0
543 1 1 1 1 -213.9501639232163 -54.4518579574563 0
544 1 1 1 1 164.2635764265112 -158.0722148873643 0
545 1 1 1 1 239.0029944780967 -19.29398579516797 0
546 1 1 1 1 -20.59497258425418 -26.1491298051325 0
547 1 1 1 1 198.74895084385 79.93057373626931 0
548 1 1 1 1 162.5769420934108 71.5851796429672 0
549 1 1 1 1 -171.005204120219 15.00181836447558 0
550 1 1 1 1 55.83352847869315 133.8493153207808 0
551 1 1 1 1 163.7413536870424 -110.3031450308091 0
552 1 1 1 1 -220.6281927462014 -199.8127791604682 0
553 1 1 1 1 -194.1870212932613 10.83121679179646 0
554 1 1 1 1 -199.9434888906015 234.3366508606135 0
555 1 1 1 1 172.5199128672691 -74.14266054260517 0
556 1 1 1 1 -197.1887957947555 194.4642103494803 0
557 1 1 1 1 -14.07760748507937 -61.15218076854626 0
558 1 1 1 1 112.1257139765416 36.93459394503003 0
559 1 1 1 1 70.43930381742865 131.7705250759693 0
560 1 1 1 1 232.7730357311289 75.68059232294451 0
561 1 1 1 1 -17.26624895533516 5.506203006063259 0
562 1 1 1 1 150.3593136468514 -123.576299610071 0
563 1 1 1 1 -193.8259827267306 -80.01017666125011 0
564 1 1 1 1 -132.7576732625982 -69.13060540985006 0
565 1 1 1 1 -179.755910645078 74.24885076439278 0
566 1 1 1 1 -128.1888817396738 127.5924979755617 0
567 1 1 1 1 -93.82173646439662 -68.63535166412828 0
568 1 1 1 1 -8.691797550566235 159.8523224181392 0
569 1 1 1 1 -80.13648255429035 -66.77586731676936 0
570 1 1 1 1 -129.7744279437193 36.72994830451984 0
571 1 1 1 1 -169.7139621302239 -25.71087102469551 0
572 1 1 1 1 171.2224733715893 -134.1482089664757 0
573 1 1 1 1 83.71194387998924 -107.9482123339631 0
574 1 1 1 1 56.97138804901175 -0.5519449483617507 0
575 1 1 1 1 -208.6623568757563 -96.0112360604584 0
576 1 1 1 1 48.99449365549697 -206.8948154626174 0
577 1 1 1 1 -163.591576516898 -186.1162403614982 0
578 1 1 1 1 214.1868284302173 -144.8138813377508 0
579 1 1 1 1 62.53007700023238 -9.105802014053666 0
580 1 1 1 1 -112.5336816017521 43.80299165931956 0
581 1 1 1 1 117.7351665913665 121.773817675314 0
582 1 1 1 1 118.767982681096 155.7914749975491 0
583 1 1 1 1 -101.7082521596646 -8.920179104179567 0
584 1 1 1 1 -34.40406171686848 -137.6036771467512 0
585 1 1 1 1 51.97851185270946 57.85740528374345 0
586 1 1 1 1 109.190342086467 95.44095751334703 0
587 1 1 1 1 -195.9417206817 87.84689850246048 0
588 1 1 1 1 131.9740080671173 12.27724606297085 0
589 1 1 1 1 -2.254333782841258 54.36257871183619 0
590 1 1 1 1 122.6749931566459 105.8823423014785 0