

2178 atoms
5363 bonds
1 atom types
1 bond types
-360 360 xlo xhi
-216 216 ylo yhi
-32 32 zlo zhi

Atoms #bpm/sphere

1 1 1 1 1 138.2597164898052 -208.877476604853 0
2 1 1 1 1 -284.3055198205491 -31.61801938661273 0
3 1 1 1 1 246.3186186993048 59.28666210170167 0
4 1 1 1 1 -78.80822719291143 122.4937768860935 0
5 1 1 1 1 82.34871849941521 124.7352553052232 0
6 1 1 1 1 304.5557395976859 -161.7300888809422 0
7 1 1 1 1 335.4906605651181 202.6667256655604 0
8 1 1 1 1 -69.37467219817455 -71.06106597095271 0
9 1 1 1 1 -291.8030455421052 112.4420259207807 0
10 1 1 1 1 -146.4672326555282 -39.77019634386821 0
11 1 1 1 1 -190.1677680120463 -14.97959083395924 0
12 1 1 1 1 26.94746151064646 47.04896696306867 0
13 1 1 1 1 310.9391642101476 -105.3760151145809 0
14 1 1 1 1 -210.5116746822242 191.8321340420799 0
15 1 1 1 1 315.9668542739312 -26.63354108653698 0
16 1 1 1 1 -266.7227063474201 -125.1996972086393 0
17 1 1 1 1 275.8322534629647 51.58493244742186 0
18 1 1 1 1 349.9956097822515 -26.14613285010472 0
19 1 1 1 1 109.3853222536331 -171.1058618171844 0
20 1 1 1 1 -97.65514057538513 -64.34628713513135 0
21 1 1 1 1 -32.66592184628331 -65.04424705711347 0
22 1 1 1 1 323.0328063914592 89.55787880302825 0
23 1 1 1 1 308.5998707238846 -179.6736336052034 0
24 1 1 1 1 94.79903796070767 -71.43169925904789 0
25 1 1 1 1 -52.26700759866185 102.5294931145127 0
26 1 1 1 1 154.188418045185 -7.25241701447564 0
27 1 1 1 1 -255.9171290546446 -172.3663779533246 0
28 1 1 1 1 263.0437908644038 206.0757085299269 0
29 1 1 1 1 -216.5293091460182 -115.1883498809197 0
30 1 1 1 1 -261.1510503547662 29.4089665728261 0
31 1 1 1 1 -15.41869683465626 -62.97497177443643 0
32 1 1 1 1 -86.22083380145824 -17.9533987135157 0
33 1 1 1 1 260.8472087566545 -182.7046638778696 0
34 1 1 1 1 51.69785940202303 -139.0611218844836 0
35 1 1 1 1 2.788202773237686 79.48616198003771 0
36 1 1 1 1 3.267646082196848 -98.68570565947036 0
37 1 1 1 1 -117.9469937499743 -56.872781530617 0
38 1 1 1 1 -337.5719423314238 17.60161728229622 0
39 1 1 1 1 -222.017231178837 124.215487907901 0
40 1 1 1 1 -317.2283720814326 -99.61513486181661 0
41 1 1 1 1 224.9041421457808 -133.403003064506 0
42 1 1 1 1 -353.1018930898145 155.2981218395784 0
43 1 1 1 1 -61.92334708657876 -131.6668133154144 0
44 1 1 1 1 -13.00047355351086 14.8503856430643 0
45 1 1 1 1 225.0597764677536 76.31399497331358 0
46 1 1 1 1 -335.1093238946949 3.368724799703813 0
47 1 1 1 1 67.18011295635034 59.31528123359755 0
48 1 1 1 1 316.083945812723 -207.5616254292369 0
49 1 1 1 1 298.773204959333 -121.0467342014082 0
50 1 1 1 1 -339.1867987460575 -39.47960083093602 0
51 1 1 1 1 129.0200108790932 10.64225002012287 0
52 1 1 1 1 138.0549735949903 -96.68107584616925 0
53 1 1 1 1 -179.7116214142272 9.472955485481833 0
54 1 1 1 1 -42.40912346967264 163.7475060454077 0
55 1 1 1 1 -356.4832972933372 4.866005814303492 0
56 1 1 1 1 -303.9923526807973 34.85867087931024 0
57 1 1 1 1 14.77974851929315 -96.42424554174386 0
58 1 1 1 1 225.4486125692547 131.4750390302599 0
59 1 1 1 1 -52.44989942473615 175.5512368759303 0
60 1 1 1 1 161.4476437419125 -134.5216352970314 0
61 1 1 1 1 -181.140957105787 195.9546378219978 0
62 1 1 1 1 94.13936186762868 81.77391864610024 0
63 1 1 1 1 89.9061515328649 -96.86806557093091 0
64 1 1 1 1 343.2169877721686 -133.1617523421109 0
65 1 1 1 1 47.28825882078206 -66.07084893128314 0
66 1 1 1 1 -67.77230929352754 -207.0790467217796 0
67 1 1 1 1 225.4692403314319 178.8014619270141 0
68 1 1 1 1 -163.7744623261395 -162.2112882523189 0
69 1 1 1 1 -347.5542694181521 122.1340401072345 0
70 1 1 1 1 66.4935223109128 112.1770613424866 0
71 1 1 1 1 278.7924431093187 -51.86532803044236 0
72 1 1 1 1 -313.8806759813957 118.3805087371198 0
73 1 1 1 1 87.05109490464361 157.7232705408967 0
74 1 1 1 1 75.98441003078921 106.006157487208 0
75 1 1 1 1 282.8640430822134 2.21263009639199 0
76 1 1 1 1 185.3719799277116 69.96801128554671 0
77 1 1 1 1 -281.2019971331215 157.1357714319649 0
78 1 1 1 1 155.4614821306043 24.10320692990763 0
79 1 1 1 1 328.4206829273753 77.63062311900461 0
80 1 1 1 1 255.4909290741913 125.4571549820269 0
81 1 1 1 1 -342.4362617328757 -194.9423767997142 0
82 1 1 1 1 -131.9370347710045 -136.0471751152506 0
83 1 1 1 1 -108.7510435942453 -19.85987243419203 0
84 1 1 1 1 -265.0336458880582 124.3954546048612 0
85 1 1 1 1 5.985467672186644 208.7914864440612 0
86 1 1 1 1 121.9377508526662 24.6572254286279 0
87 1 1 1 1 264.7643678687305 87.4460646029404 0
88 1 1 1 1 -133.0194507351178 58.62776693851481 0
89 1 1 1 1 252.2841392594927 142.309008187856 0
90 1 1 1 1 -171.3067325652369 -152.6473331696436 0
91 1 1 1 1 243.2822366706973 -75.73092822262845 0
92 1 1 1 1 128.656633819369 -126.7800594717034 0
93 1 1 1 1 -138.1373589496724 -170.9837537377855 0
94 1 1 1 1 350.0468757058465 64.28956283190172 0
95 1 1 1 1 -312.111024104976 -73.37718002806861 0
96 1 1 1 1 255.4641374634217 30.12577606540134 0
97 1 1 1 1 141.4782861970899 -137.9213438669327 0
98 1 1 1 1 -87.58094845954133 -94.63970921243958 0
99 1 1 1 1 -105.0462055010663 -41.71114360990481 0
100 1 1 1 1 -54.25321799087544 -34.34333512792668 0
101 1 1 1 1 -137.9413241102255 96.3339769743921 0
102 1 1 1 1 -210.4277295166002 -96.9982786229352 0
103 1 1 1 1 276.5701537898921 -124.8787693655008 0
104 1 1 1 1 -53.71556580217322 188.5396004232847 0
105 1 1 1 1 -137.1975874592187 77.75978753258528 0
106 1 1 1 1 -36.2394340482785 -140.2653450045723 0
107 1 1 1 1 -26.41970095593769 -206.7263447421982 0
108 1 1 1 1 -264.4525498241762 -15.71833737533089 0
109 1 1 1 1 59.61182553112604 -109.0327640001694 0
110 1 1 1 1 116.3585215326401 -127.9806888738012 0
111 1 1 1 1 145.4813367758017 -17.22308997808867 0
112 1 1 1 1 37.71215458690205 -74.40487662053283 0
113 1 1 1 1 -315.147055686367 104.4989711006124 0
114 1 1 1 1 -343.3355694661987 157.7650040038594 0
115 1 1 1 1 -344.6080729378277 29.72582195914072 0
116 1 1 1 1 30.79669432494899 -108.7243244532463 0
117 1 1 1 1 163.5293471958056 -169.0128952856723 0
118 1 1 1 1 -341.5539560694586 -56.23102323817304 0
119 1 1 1 1 -256.2300565986718 -24.79378836851922 0
120 1 1 1 1 329.0803320107514 -149.5182000266135 0
121 1 1 1 1 215.1747261942305 -105.8940798135444 0
122 1 1 1 1 199.2048010385645 140.7719222716144 0
123 1 1 1 1 -7.846447887772854 45.55544113929847 0
124 1 1 1 1 170.8522931290656 148.3846936154089 0
125 1 1 1 1 -185.1708183364248 111.8448131333951 0
126 1 1 1 1 197.8483215686763 20.26731859535443 0
127 1 1 1 1 -155.0606896501191 -32.97093341026158 0
128 1 1 1 1 140.6068246369756 119.402150602633 0
129 1 1 1 1 -17.10327297511617 -87.91165280734452 0
130 1 1 1 1 331.7461082279814 -38.49473129041107 0
131 1 1 1 1 44.76162554201972 -151.5471700013972 0
132 1 1 1 1 26.99422790180495 -154.1142391089687 0
133 1 1 1 1 60.36509923110862 161.5565149668464 0
134 1 1 1 1 64.7345178145934 47.78896981036166 0
135 1 1 1 1 188.7959549450682 193.2605889523849 0
136 1 1 1 1 302.398322961375 2.895891063299644 0
137 1 1 1 1 264.593270301093 97.48742305688961 0
138 1 1 1 1 -205.2053320815718 -151.6320326725542 0
139 1 1 1 1 -107.0930575671444 -145.6059424841361 0
140 1 1 1 1 235.743673836982 -154.6432433511811 0
141 1 1 1 1 226.5324210845624 -205.441779300613 0
142 1 1 1 1 -295.4767596991713 14.96394799709441 0
143 1 1 1 1 14.95144620251097 -6.266923371728097 0
144 1 1 1 1 -106.065966647731 189.0156620083934 0
145 1 1 1 1 -195.3273732017638 209.4862492526311 0
146 1 1 1 1 -192.7306897708458 24.57761971346403 0
147 1 1 1 1 178.7355555566462 -199.6437028540157 0
148 1 1 1 1 6.462363564311033 -146.4252581263731 0
149 1 1 1 1 108.4899694521897 -13.20006318029851 0
150 1 1 1 1 126.0972595402247 36.41495864923058 0
151 1 1 1 1 330.3849028760512 -177.9436886238551 0
152 1 1 1 1 -276.8423592737942 -66.59041581217267 0
153 1 1 1 1 -177.1326762164322 158.9471103986328 0
154 1 1 1 1 -46.1578010869091 -99.40278595897331 0
155 1 1 1 1 -134.885781784326 31.20715527423226 0
156 1 1 1 1 352.7491185102711 -210.5426012389962 0
157 1 1 1 1 25.67515608453357 26.69107278460245 0
158 1 1 1 1 290.1614804251216 -142.0662082946181 0
159 1 1 1 1 181.8099787128368 210.6389148234558 0
160 1 1 1 1 -261.0967804644407 -211.609381334716 0
161 1 1 1 1 -142.3267652150595 173.7804322497391 0
162 1 1 1 1 242.7330548486525 191.6273648271579 0
163 1 1 1 1 -303.618291795111 -107.6322659301274 0
164 1 1 1 1 -36.46766293622767 207.979493732806 0
165 1 1 1 1 212.3689379172562 -42.14659737710923 0
166 1 1 1 1 -84.8864234387371 203.9367292209366 0
167 1 1 1 1 -29.84615435528599 -35.63629316830094 0
168 1 1 1 1 -2.771223849112062 106.8942529829745 0
169 1 1 1 1 -109.5170162488796 -6.105810385040996 0
170 1 1 1 1 189.5506543447665 -13.72356737639959 0
171 1 1 1 1 -56.06825830261795 -7.238073414245491 0
172 1 1 1 1 30.72553516174492 -139.6256352295713 0
173 1 1 1 1 -327.3150293642255 -31.76315642150357 0
174 1 1 1 1 -349.5623078439906 -148.5817276169103 0
175 1 1 1 1 -128.2561710113187 213.3856403461088 0
176 1 1 1 1 325.7540798762603 197.0286300398318 0
177 1 1 1 1 80.05105870321796 137.2411365383886 0
178 1 1 1 1 -245.1217020090831 82.70624468849979 0
179 1 1 1 1 296.8186345572489 -185.9101107009948 0
180 1 1 1 1 -214.5127333021679 34.14818132281133 0
181 1 1 1 1 -251.5930697491431 -95.67595039320058 0
182 1 1 1 1 -86.73063722032521 49.65492802987274 0
183 1 1 1 1 -219.8005101171588 8.961867868335588 0
184 1 1 1 1 233.837466056283 51.87726858633096 0
185 1 1 1 1 -100.1190735439405 -96.18568851628537 0
186 1 1 1 1 27.7753164771222 141.3869541098133 0
187 1 1 1 1 -303.506244213253 -33.30786201210228 0
188 1 1 1 1 86.3257013212932 -23.26602710164369 0
189 1 1 1 1 309.0338909514114 74.22648551959867 0
190 1 1 1 1 2.504887100715223 -46.02174601526116 0
191 1 1 1 1 50.99933467780784 182.1962121759487 0
192 1 1 1 1 237.2900881635466 -51.82346110053391 0
193 1 1 1 1 -66.49333774502725 -29.82683809326022 0
194 1 1 1 1 146.5030943461198 73.21387758354069 0
195 1 1 1 1 -156.4778673872109 143.9684500115401 0
196 1 1 1 1 -184.2637691937642 -197.3105662616645 0
197 1 1 1 1 58.43069607102746 66.65069226764882 0
198 1 1 1 1 202.3743420568464 86.8474517114596 0
199 1 1 1 1 209.4413070324179 -172.575292048307 0
200 1 1 1 1 56.25513902055479 -177.6909485439088 0
201 1 1 1 1 -241.6851488298146 -119.3225922615716 0
202 1 1 1 1 -94.8439924982398 -145.2810391586811 0
203 1 1 1 1 320.5054647095218 -90.26130112099096 0
204 1 1 1 1 338.5863589751035 -154.3899938802289 0
205 1 1 1 1 -137.3923150819078 -153.8439824197202 0
206 1 1 1 1 349.1128920866555 167.9706287310756 0
207 1 1 1 1 -282.8091606819589 -141.6412000030989 0
208 1 1 1 1 -195.0322987595939 -95.8774974359719 0
209 1 1 1 1 -52.2571178464645 4.974574835579006 0
210 1 1 1 1 236.6144378007031 -36.39809871538969 0
211 1 1 1 1 263.8512459257947 -212.8881999993314 0
212 1 1 1 1 -126.5903340928606 -36.44521643008491 0
213 1 1 1 1 -302.4555318362679 151.2481252547287 0
214 1 1 1 1 -76.54670112925533 -170.0656227113225 0
215 1 1 1 1 91.33671879104486 143.9483838459815 0
216 1 1 1 1 50.75501831650587 194.935315082871 0
217 1 1 1 1 110.7254449131937 192.7690257542216 0
218 1 1 1 1 82.92539975115625 -202.4764267693678 0
219 1 1 1 1 214.835236531438 210.7469449080636 0
220 1 1 1 1 -61.20064530948821 -120.8776834206564 0
221 1 1 1 1 127.6246827397309 77.50674417045684 0
222 1 1 1 1 15.85719737113004 -206.4014143978331 0
223 1 1 1 1 -253.6236447333822 123.5416062380581 0
224 1 1 1 1 260.9993688391418 74.21846715653243 0
225 1 1 1 1 -124.3970604033846 148.6118186565803 0
226 1 1 1 1 219.7462217266158 -160.5714517008449 0
227 1 1 1 1 78.19038625839153 36.8885585268518 0
228 1 1 1 1 120.8369940095302 60.02748972231115 0
229 1 1 1 1 -204.7368018429291 78.46035939519834 0
230 1 1 1 1 20.75678575030395 88.69100972561563 0
231 1 1 1 1 -288.7264181531303 -101.5802814971378 0
232 1 1 1 1 115.0922219568502 -203.6375229570457 0
233 1 1 1 1 75.828211777435 -184.7194440076898 0
234 1 1 1 1 -302.3906797772485 -207.9751723864991 0
235 1 1 1 1 77.06643579549649 155.3831971948887 0
236 1 1 1 1 336.553598920807 -199.2296174115915 0
237 1 1 1 1 -193.7417947543325 -194.8414352100294 0
238 1 1 1 1 65.13873608113073 -74.57529208707018 0
239 1 1 1 1 -332.0897169411102 -182.9562012443719 0
240 1 1 1 1 329.8284629623029 -190.318419705455 0
241 1 1 1 1 36.56649571461196 -36.51946691407807 0
242 1 1 1 1 -206.0578892554263 -122.4562786764946 0
243 1 1 1 1 267.7328811481702 -45.82013401210867 0
244 1 1 1 1 205.3891675326861 59.60301019122596 0
245 1 1 1 1 62.54412254191266 205.0727904701909 0
246 1 1 1 1 -10.0957819177242 66.08027483028661 0
247 1 1 1 1 -74.84012059793531 165.8743209440227 0
248 1 1 1 1 71.12739395655194 144.1901521206108 0
249 1 1 1 1 221.8477902849919 120.8668021586554 0
250 1 1 1 1 181.3173849873101 112.2478173882726 0
251 1 1 1 1 -185.5741966085163 -170.5189781381713 0
252 1 1 1 1 -34.29820360398588 -184.4337312581802 0
253 1 1 1 1 316.7953301009974 3.089773649904828 0
254 1 1 1 1 32.86030840235509 59.51918156589807 0
255 1 1 1 1 -175.7721325045276 -214.169429528193 0
256 1 1 1 1 -55.78567394203543 134.4798563469383 0
257 1 1 1 1 -42.53491170510318 -67.34752554898623 0
258 1 1 1 1 31.97744280608032 -174.1043421828134 0
259 1 1 1 1 -22.11999561078875 -196.4932299210381 0
260 1 1 1 1 -328.0617628943159 -100.7422640275767 0
261 1 1 1 1 17.6030276707582 63.46860882308482 0
262 1 1 1 1 -44.04837223408225 64.45920185729614 0
263 1 1 1 1 -199.5024766727889 -104.4558780644494 0
264 1 1 1 1 43.75104610666926 111.4734012604291 0
265 1 1 1 1 -162.7245647671929 -106.236697522427 0
266 1 1 1 1 -279.7610571129151 183.6984211986026 0
267 1 1 1 1 38.15021702149346 13.28819811805414 0
268 1 1 1 1 -182.8565252407292 168.5425673071013 0
269 1 1 1 1 -263.0748741596489 178.263373781547 0
270 1 1 1 1 -290.9132202172108 -168.6249246672612 0
271 1 1 1 1 146.2887537288422 139.6337830274439 0
272 1 1 1 1 201.7247144555879 6.948914636847292 0
273 1 1 1 1 236.3599174656272 -106.516801306265 0
274 1 1 1 1 150.8215900984812 114.8811092003886 0
275 1 1 1 1 349.9090052169491 -195.8197396991644 0
276 1 1 1 1 -266.0680288204408 103.5247959443656 0
277 1 1 1 1 356.4064589006182 -114.6601579783575 0
278 1 1 1 1 215.3972384465563 63.62230032862294 0
279 1 1 1 1 165.2314772576216 51.90877709554638 0
280 1 1 1 1 -112.8223747211445 -154.9412378691733 0
281 1 1 1 1 -130.0915569437285 -9.999397363181259 0
282 1 1 1 1 -109.5351904064396 104.0272944679779 0
283 1 1 1 1 206.7936057259605 76.43482934867689 0
284 1 1 1 1 -10.49757645521095 156.4026571856414 0
285 1 1 1 1 14.29426652174647 -122.5053337064414 0
286 1 1 1 1 75.43514334311254 -13.1772286114612 0
287 1 1 1 1 -248.5072562244127 -182.8158582764586 0
288 1 1 1 1 298.6018245506383 -76.52012803634901 0
289 1 1 1 1 -90.2371279610793 -209.2567058625717 0
290 1 1 1 1 -23.29382424375325 123.2257993950618 0
291 1 1 1 1 -72.05022411525539 -193.0089517001019 0
292 1 1 1 1 151.1348058080047 -26.74629712564345 0
293 1 1 1 1 80.62221293286535 -77.05057537897386 0
294 1 1 1 1 -108.5428453239197 213.2510279020625 0
295 1 1 1 1 252.4750412047546 20.65206382104407 0
296 1 1 1 1 53.86021112220016 -191.7374180022222 0
297 1 1 1 1 286.2380198448497 -176.9827460440364 0
298 1 1 1 1 60.37264557232805 -204.7631873880011 0
299 1 1 1 1 -14.60535507412857 -120.6122167861959 0
300 1 1 1 1 168.9261769861321 -25.90688478331549 0
301 1 1 1 1 250.8709454951955 -156.8109604898046 0
302 1 1 1 1 -161.3572548030893 -150.4181995563389 0
303 1 1 1 1 -140.8421509146037 133.3009519331629 0
304 1 1 1 1 -140.186175455023 -32.04289320956508 0
305 1 1 1 1 297.9754344755298 -21.22624271215128 0
306 1 1 1 1 -204.9435035444353 -7.294592896450979 0
307 1 1 1 1 265.4200794106665 12.3631640762502 0
308 1 1 1 1 54.85904051159582 107.2626722518128 0
309 1 1 1 1 -173.3225242729278 71.62312244587935 0
310 1 1 1 1 -197.4492514362348 130.6477784802571 0
311 1 1 1 1 -108.893401853213 117.468202758572 0
312 1 1 1 1 351.9499430843758 -138.9911014015177 0
313 1 1 1 1 -338.9221411453794 211.6516573599422 0
314 1 1 1 1 -147.3479822018985 -190.3054301399357 0
315 1 1 1 1 279.063016647417 205.7696768725321 0
316 1 1 1 1 -299.263644781086 -131.9760929519396 0
317 1 1 1 1 251.2103972126988 -168.0164007387796 0
318 1 1 1 1 206.7723760112161 -206.6141560968871 0
319 1 1 1 1 95.87606769835918 -106.8280174090414 0
320 1 1 1 1 -84.79969346568214 -125.0096803410028 0
321 1 1 1 1 -96.81622584552929 -188.8824926815973 0
322 1 1 1 1 48.85503065016968 162.6759787131649 0
323 1 1 1 1 -79.19426611178346 104.7340033007196 0
324 1 1 1 1 308.865966532126 -69.04294083191357 0
325 1 1 1 1 -168.0818670565663 -58.84309875034953 0
326 1 1 1 1 -6.597250764314424 -29.02277592978857 0
327 1 1 1 1 -182.1318233903583 -51.71893240001185 0
328 1 1 1 1 -150.3445844529184 -121.8725636383121 0
329 1 1 1 1 209.7767475961487 -74.30563658101679 0
330 1 1 1 1 140.3519912007734 -42.90996516052212 0
331 1 1 1 1 -233.3618528533573 -180.3998049995425 0
332 1 1 1 1 -86.92419188191963 -165.9029942214117 0
333 1 1 1 1 -359.7473150295352 -6.067572754090833 0
334 1 1 1 1 -261.3125929563472 71.5103439925602 0
335 1 1 1 1 -105.2199931129561 151.4991483735923 0
336 1 1 1 1 -84.05105307777484 17.46571393113032 0
337 1 1 1 1 -310.4440053216155 163.2401103021867 0
338 1 1 1 1 -228.5358914838836 101.7461184533136 0
339 1 1 1 1 -210.9545476507897 54.50616841831243 0
340 1 1 1 1 -359.702589880545 132.9259273571429 0
341 1 1 1 1 -354.2970861028408 66.32586284150955 0
342 1 1 1 1 -97.03925166874961 120.9463971188196 0
343 1 1 1 1 122.9307704285907 -68.31325633305565 0
344 1 1 1 1 101.6929136904066 170.7064470714722 0
345 1 1 1 1 87.16993926741003 112.1583783603378 0
346 1 1 1 1 -33.10042454267875 189.4742374766045 0
347 1 1 1 1 -274.2045935448845 -158.4100711024316 0
348 1 1 1 1 -130.6250945387506 6.552169246885796 0
349 1 1 1 1 157.8098524399134 34.86710348090992 0
350 1 1 1 1 -213.4549605606401 168.8564114485333 0
351 1 1 1 1 -130.785127010353 -116.3208298405365 0
352 1 1 1 1 -19.60624055945897 -109.5851262401367 0
353 1 1 1 1 -338.5983747715188 111.5418628141395 0
354 1 1 1 1 -203.9502754190146 203.8613420763994 0
355 1 1 1 1 333.1090019730746 -135.337685170115 0
356 1 1 1 1 -109.0788874000968 22.26274447815041 0
357 1 1 1 1 335.1231229674099 189.0964807130594 0
358 1 1 1 1 23.19767172697237 -21.71937338781885 0
359 1 1 1 1 350.1646329854819 9.813401061961685 0
360 1 1 1 1 68.68352980886397 28.02870348743565 0
361 1 1 1 1 128.9075637987386 121.0423359982182 0
362 1 1 1 1 -345.1940894410537 -109.7554091022135 0
363 1 1 1 1 -227.0912640197721 -15.00628597637808 0
364 1 1 1 1 31.49355295183608 114.5024014959669 0
365 1 1 1 1 115.4431101226837 44.61159083338913 0
366 1 1 1 1 37.33498851530572 -55.47358700351808 0
367 1 1 1 1 32.28350779961704 -129.6100512801275 0
368 1 1 1 1 -337.548379772753 -132.2516970901733 0
369 1 1 1 1 139.9298786590457 47.47052309041845 0
370 1 1 1 1 226.5022735172463 211.3084987274019 0
371 1 1 1 1 -74.92548135913683 -8.676186571068485 0
372 1 1 1 1 -146.5322178835282 153.011014546986 0
373 1 1 1 1 248.0036601323733 1.8604879994366 0
374 1 1 1 1 -357.7089715282686 116.4364913259378 0
375 1 1 1 1 -162.8777116290112 165.8215109009562 0
376 1 1 1 1 18.84005087707078 -78.94238901811315 0
377 1 1 1 1 61.69178269109551 -149.3979754814313 0
378 1 1 1 1 -166.779642113911 103.8600510041471 0
379 1 1 1 1 334.1687870734883 123.4119451357846 0
380 1 1 1 1 -318.6608453253484 128.0030001718996 0
381 1 1 1 1 235.117244136413 -26.84608096256861 0
382 1 1 1 1 212.5988968466904 30.94231891984319 0
383 1 1 1 1 -145.7831483142304 -12.78960870835113 0
384 1 1 1 1 -276.3275686232483 196.1239372675132 0
385 1 1 1 1 95.60084862042339 -138.9196306554474 0
386 1 1 1 1 15.15516809777347 46.58437617976085 0
387 1 1 1 1 357.0647447040949 40.5652117006656 0
388 1 1 1 1 -330.8253013578931 33.27495393285136 0
389 1 1 1 1 -105.0443480526305 201.8160280057336 0
390 1 1 1 1 -37.15196807158134 -164.8690133123943 0
391 1 1 1 1 30.47701051944011 -203.722567373412 0
392 1 1 1 1 208.7994657532983 -185.7056239087142 0
393 1 1 1 1 -178.9672745747017 122.5949388696495 0
394 1 1 1 1 -138.7773124622399 110.8655519993619 0
395 1 1 1 1 206.886910608588 -122.4132976903618 0
396 1 1 1 1 -251.2358716574506 -204.8933071610794 0
397 1 1 1 1 22.98045548313331 -189.5788343605719 0
398 1 1 1 1 39.80905950290219 152.1148851391776 0
399 1 1 1 1 -308.1102800519614 179.5524403808574 0
400 1 1 1 1 -1.640151059342031 177.3415417180949 0
401 1 1 1 1 305.3211633838488 -214.2089931384668 0
402 1 1 1 1 -255.6737469701371 80.34452229483856 0
403 1 1 1 1 -44.42733578847833 17.13421515054023 0
404 1 1 1 1 -43.85607364029278 -86.62761151436445 0
405 1 1 1 1 -324.6163086527635 -132.72533662915 0
406 1 1 1 1 -204.5261851643432 105.749393750234 0
407 1 1 1 1 -258.9595209914605 48.60844570149851 0
408 1 1 1 1 -153.7990557050591 -213.0877060931981 0
409 1 1 1 1 80.00676719162823 47.73137960619658 0
410 1 1 1 1 102.6492525812978 -84.59832486753356 0
411 1 1 1 1 347.2092577523364 -164.8725757321155 0
412 1 1 1 1 98.02068279148512 7.131594979149753 0
413 1 1 1 1 -41.52415247346323 -8.294422933746063 0
414 1 1 1 1 357.7961863018562 -45.14895157014183 0
415 1 1 1 1 98.13946082491304 202.9375118116552 0
416 1 1 1 1 -247.1457371713683 95.2437575404536 0
417 1 1 1 1 -178.1813462338783 30.15492425126999 0
418 1 1 1 1 -342.3711036114751 44.1947725359571 0
419 1 1 1 1 -10.23505009557977 -78.69934836694335 0
420 1 1 1 1 -35.44932893865786 80.62218555011754 0
421 1 1 1 1 167.3109575275992 124.9478063970889 0
422 1 1 1 1 250.487993207098 169.6375035609308 0
423 1 1 1 1 -61.40021247778191 -53.57878006737906 0
424 1 1 1 1 -303.1977246629018 -176.2115492505454 0
425 1 1 1 1 -290.4140468887143 84.6817454527868 0
426 1 1 1 1 302.7475916857532 148.4272368168012 0
427 1 1 1 1 105.396355346268 -213.5623353514654 0
428 1 1 1 1 -241.6294255455444 -35.5080466899758 0
429 1 1 1 1 150.1448631503002 -58.60024630576874 0
430 1 1 1 1 -235.7242094070722 8.004994332349725 0
431 1 1 1 1 166.8843260468582 -198.3255470618298 0
432 1 1 1 1 -281.096247689872 -197.8825211582259 0
433 1 1 1 1 -151.8570895952454 93.99082134857707 0
434 1 1 1 1 -216.9466747907427 -66.53659740442009 0
435 1 1 1 1 127.7103067872126 214.021676153615 0
436 1 1 1 1 -30.19089288597934 132.7892441038519 0
437 1 1 1 1 68.03139476035267 -129.6020691236307 0
438 1 1 1 1 -34.9382066532383 -195.581957321872 0
439 1 1 1 1 -95.09665994653233 -33.88646761871638 0
440 1 1 1 1 -170.8720744718982 -199.9677978327656 0
441 1 1 1 1 35.90915735413211 182.8869320981816 0
442 1 1 1 1 -79.59485811579395 42.57924506909359 0
443 1 1 1 1 -51.18180506005217 -137.1156732291062 0
444 1 1 1 1 255.4036478560759 -8.746697632376737 0
445 1 1 1 1 160.8618141634775 213.6197565624389 0
446 1 1 1 1 -166.6155493114117 -188.7367433241277 0
447 1 1 1 1 116.3953478679147 -93.50386813577038 0
448 1 1 1 1 243.3869535134328 -8.453339875203966 0
449 1 1 1 1 -157.0653446378154 28.78012193841718 0
450 1 1 1 1 310.6508865565793 -84.08498252187098 0
451 1 1 1 1 7.124616374259119 184.9368233801183 0
452 1 1 1 1 147.5540695968833 -92.49281504121154 0
453 1 1 1 1 156.9921707866301 101.1201609130405 0
454 1 1 1 1 12.34737618729162 -27.91702781392561 0
455 1 1 1 1 -36.94143368395208 99.67540562923938 0
456 1 1 1 1 -333.4737891727297 177.6243173071266 0
457 1 1 1 1 70.97536634430583 131.0705168140216 0
458 1 1 1 1 96.65745270417261 -180.8948596804538 0
459 1 1 1 1 60.02714894828569 142.7858021836232 0
460 1 1 1 1 67.21332172172072 -54.17481805657539 0
461 1 1 1 1 -210.3839922634435 146.5337538794212 0
462 1 1 1 1 -310.8440571882466 -187.6671018252876 0
463 1 1 1 1 -260.6222004184336 -144.5539780554776 0
464 1 1 1 1 331.1767895062484 -120.0038033161432 0
465 1 1 1 1 91.45473724287194 -81.57296478809275 0
466 1 1 1 1 308.3909738012239 -132.4692205216749 0
467 1 1 1 1 290.4389527057405 -51.09882379550732 0
468 1 1 1 1 -284.0195869447833 92.63303911751763 0
469 1 1 1 1 310.8549188217443 97.8796503446589 0
470 1 1 1 1 -94.84465874830528 8.758556161362634 0
471 1 1 1 1 170.9157908415351 180.9436918660558 0
472 1 1 1 1 -206.5694836995648 28.29840644633384 0
473 1 1 1 1 279.809516304726 29.54395509930572 0
474 1 1 1 1 -60.44941708988978 -169.9982827588548 0
475 1 1 1 1 -203.7729713362996 -139.891578209249 0
476 1 1 1 1 242.5708853700301 99.91945482336587 0
477 1 1 1 1 -218.6017657540959 -4.416178743590535 0
478 1 1 1 1 116.8780102255599 97.4692414345754 0
479 1 1 1 1 178.0134683587345 138.9429650565114 0
480 1 1 1 1 272.2108684397249 -170.8440412215384 0
481 1 1 1 1 -227.7119632629092 -165.1219584166502 0
482 1 1 1 1 63.38140290333575 93.55056863951535 0
483 1 1 1 1 -136.2772558624442 121.9123515086 0
484 1 1 1 1 -121.3699159392566 165.1466373028806 0
485 1 1 1 1 331.0734904459405 -59.83925121769687 0
486 1 1 1 1 312.8266662931518 185.4113546142141 0
487 1 1 1 1 -37.53465147502692 26.62091393107158 0
488 1 1 1 1 37.67036990510633 68.90465698165144 0
489 1 1 1 1 310.2755014417564 -43.34727321787153 0
490 1 1 1 1 -268.9002682609108 -42.98319451286369 0
491 1 1 1 1 223.7303720783065 45.43851216977333 0
492 1 1 1 1 -5.46490214278748 211.5323968998273 0
493 1 1 1 1 -267.9957968800367 -201.7655323251987 0
494 1 1 1 1 -70.63647313873241 17.77493973396057 0
495 1 1 1 1 -76.81483288697763 57.56391685637806 0
496 1 1 1 1 -67.3412934270516 6.642176892535076 0
497 1 1 1 1 -106.2770890692242 93.66258924103278 0
498 1 1 1 1 -53.7725424610851 -180.8823859489365 0
499 1 1 1 1 19.27937756971005 215.1661280118277 0
500 1 1 1 1 -0.7748096136447771 137.6018293715707 0
501 1 1 1 1 274.2431086074347 131.3311551917821 0
502 1 1 1 1 124.0920716260101 -183.5907904843509 0
503 1 1 1 1 356.4954342153483 -61.528700756973 0
504 1 1 1 1 -28.13789977748394 59.72558032591115 0
505 1 1 1 1 105.5296759270579 93.75206645821299 0
506 1 1 1 1 265.3907550214926 142.5472942015373 0
507 1 1 1 1 45.60440171424153 -116.4590435189304 0
508 1 1 1 1 293.8165332404921 -101.0419429367169 0
509 1 1 1 1 -265.2123027068258 -89.72356447828385 0
510 1 1 1 1 -142.0939663417963 65.69929153749968 0
511 1 1 1 1 196.4512070269021 -184.0486064029062 0
512 1 1 1 1 -70.40372966102518 -157.1696841823856 0
513 1 1 1 1 -122.8244022741262 20.43790321490411 0
514 1 1 1 1 -110.078186406104 -67.40271337600376 0
515 1 1 1 1 -232.2678028570691 -76.96149091204927 0
516 1 1 1 1 -152.2194530348895 108.1968052024258 0
517 1 1 1 1 7.484585049069381 -113.2044234480176 0
518 1 1 1 1 -226.155012057032 -42.8732771425841 0
519 1 1 1 1 143.8181061906847 -1.296661534591607 0
520 1 1 1 1 57.08628348798743 -81.9396829745572 0
521 1 1 1 1 136.9170639327048 137.4989578818077 0
522 1 1 1 1 -150.4470809373469 82.29631339008665 0
523 1 1 1 1 255.0012681200475 -53.30115225504216 0
524 1 1 1 1 -158.2735108733506 -179.5586733700808 0
525 1 1 1 1 -215.6468114012203 155.6162603560242 0
526 1 1 1 1 339.6651444612892 42.94149024712056 0
527 1 1 1 1 241.4262129647703 -171.0301584359717 0
528 1 1 1 1 150.4291280675193 160.2312328510711 0
529 1 1 1 1 -332.568509280391 76.03533149260619 0
530 1 1 1 1 141.2041990335446 200.4898375654653 0
531 1 1 1 1 310.1588985105035 134.3106200615372 0
532 1 1 1 1 -325.4752747963825 184.5627290765492 0
533 1 1 1 1 -334.1564112758989 -63.18195685656772 0
534 1 1 1 1 182.2027582613378 -148.6216020905171 0
535 1 1 1 1 -69.22470829646454 204.5608181263555 0
536 1 1 1 1 -240.7089281753901 -208.5323196050683 0
537 1 1 1 1 -94.61569717363778 135.2302052034887 0
538 1 1 1 1 -339.2421046662531 -119.5437533142547 0
539 1 1 1 1 -58.67199259924371 -202.8679900776698 0
540 1 1 1 1 83.4167498796744 -54.71095906313269 0
541 1 1 1 1 -116.5754861689619 183.8466282752218 0
542 1 1 1 1 -67.34423035917325 -184.2311442779676 0
543 1 1 1 1 296.1768652922499 62.53812837831532 0
544 1 1 1 1 76.79133384640079 -92.85931674384572 0
545 1 1 1 1 285.0650926985065 -164.1999736058586 0
546 1 1 1 1 131.7599301221138 98.22206024675398 0
547 1 1 1 1 -175.150489315066 -116.5759814687888 0
548 1 1 1 1 -347.6583653655774 -25.35898656163462 0
549 1 1 1 1 -359.8281238500447 144.8052442247641 0
550 1 1 1 1 148.654687322118 189.859350674891 0
551 1 1 1 1 -224.4366246708145 56.70624849615689 0
552 1 1 1 1 -45.7077067048001 88.49552983874656 0
553 1 1 1 1 -238.1995019984579 130.3655183958072 0
554 1 1 1 1 117.7259113851003 -47.5126372718853 0
555 1 1 1 1 -223.0618328417243 -96.3779475255118 0
556 1 1 1 1 183.2556027035877 -214.0046337756459 0
557 1 1 1 1 135.3485732299654 62.30320389675751 0
558 1 1 1 1 -21.30688638933549 32.73666052878215 0
559 1 1 1 1 -309.3628936553737 -159.5180851147519 0
560 1 1 1 1 -216.7301918321751 203.2477953224238 0
561 1 1 1 1 -347.4190734888273 -86.08290125014713 0
562 1 1 1 1 343.5545286273725 91.52930895083284 0
563 1 1 1 1 295.6001713187899 -212.7134915004851 0
564 1 1 1 1 307.4030255800332 33.98609217273733 0
565 1 1 1 1 -239.3771172080971 21.63722373463264 0
566 1 1 1 1 -292.9028113137736 195.1715751974049 0
567 1 1 1 1 184.3338132105438 -70.25388094994349 0
568 1 1 1 1 318.0428479415217 44.22550381025269 0
569 1 1 1 1 -173.7748849723462 97.10498465167672 0
570 1 1 1 1 166.1712572931738 80.19736280528468 0
571 1 1 1 1 -51.84624396178032 157.1367685957536 0
572 1 1 1 1 -142.6846705296556 -133.6461418206783 0
573 1 1 1 1 -59.43288351399667 -88.67106196301658 0
574 1 1 1 1 216.4481621499023 190.323479230515 0
575 1 1 1 1 26.27224062862854 76.90304657122528 0
576 1 1 1 1 119.1037567031349 -5.645256451708264 0
577 1 1 1 1 -47.53913138176853 -190.7808764544718 0
578 1 1 1 1 -126.4230070317207 -105.2702833312162 0
579 1 1 1 1 179.9034792719646 174.5005511088766 0
580 1 1 1 1 219.0174949105274 -178.7870318073154 0
581 1 1 1 1 -311.6331774590102 87.87341341516765 0
582 1 1 1 1 310.4917998390524 15.35828591366965 0
583 1 1 1 1 197.6844436517133 105.8326209300837 0
584 1 1 1 1 337.4985250501874 149.2292938674968 0
585 1 1 1 1 -129.6666765865976 -176.5060423808651 0
586 1 1 1 1 -341.0545886824801 68.4041578280781 0
587 1 1 1 1 357.07483868156 -80.97216905566589 0
588 1 1 1 1 -167.3442328231632 192.9085844311913 0
589 1 1 1 1 2.06987985720815 -135.1669836711291 0
590 1 1 1 1 96.42266334494428 71.06659719639282 0