

3836 atoms
9442 bonds
1 atom types
1 bond types
-672 672 xlo xhi
-403.2 403.2 ylo yhi
-32 32 zlo zhi

Atoms #bpm/sphere

1 1 1 1 1 38.98391424424624 4.055080040855864 0
2 1 1 1 1 485.9612013835526 250.5246112100542 0
3 1 1 1 1 268.0530119584384 -231.628406444892 0
4 1 1 1 1 -384.4469391397055 233.9207819384806 0
5 1 1 1 1 254.770846660505 196.7926897748406 0
6 1 1 1 1 86.55032204202099 331.2947451698179 0
7 1 1 1 1 -531.4221090702521 -248.7573932946226 0
8 1 1 1 1 -95.71662706746164 292.4310372252936 0
9 1 1 1 1 44.05326268819949 -185.140966024468 0
10 1 1 1 1 -367.7598055205108 -151.0463544305844 0
11 1 1 1 1 511.6057038687274 389.6966241000384 0
12 1 1 1 1 -126.0665587084738 20.59751798265023 0
13 1 1 1 1 43.61488136049177 -91.50212982137497 0
14 1 1 1 1 -141.1564740993154 -327.3237611866086 0
15 1 1 1 1 -68.12633384014129 212.8886886206694 0
16 1 1 1 1 422.8107335105737 -17.69359413602082 0
17 1 1 1 1 445.6611156574339 -287.3799676727256 0
18 1 1 1 1 -485.9318998759609 -351.582675574743 0
19 1 1 1 1 611.1529071611396 -338.8422121780541 0
20 1 1 1 1 154.9016656591369 115.0611707496704 0
21 1 1 1 1 -104.5927285078323 -141.5291887057416 0
22 1 1 1 1 474.0456041581975 108.7858105897717 0
23 1 1 1 1 193.789868951339 17.70908273140694 0
24 1 1 1 1 32.91798134114483 -351.7817458368689 0
25 1 1 1 1 255.5751636090452 -46.28896850543211 0
26 1 1 1 1 -169.2963421311544 254.9284174184623 0
27 1 1 1 1 162.1076929371026 395.7154711643952 0
28 1 1 1 1 147.1680239017736 8.24269555337405 0
29 1 1 1 1 -147.3845490625488 -18.48034649078779 0
30 1 1 1 1 -451.8225659908462 -36.88051300018731 0
31 1 1 1 1 247.066622858318 399.6118298684594 0
32 1 1 1 1 313.9793568057993 -185.0443756393391 0
33 1 1 1 1 -637.0598240274202 121.5654541847792 0
34 1 1 1 1 -215.0319141223119 -274.3830789000317 0
35 1 1 1 1 -422.8604690172493 -399.7331823468271 0
36 1 1 1 1 -468.4175321248583 -87.73380790514091 0
37 1 1 1 1 209.2160711040681 116.8550693382088 0
38 1 1 1 1 -197.6768859124392 256.0160922533449 0
39 1 1 1 1 -246.7840083613809 298.4281769396823 0
40 1 1 1 1 -349.7065452112409 252.0077237827901 0
41 1 1 1 1 -238.1083445273951 -267.3243079175877 0
42 1 1 1 1 292.4161174641398 130.0492314811696 0
43 1 1 1 1 115.3663441583457 -64.63958643599399 0
44 1 1 1 1 -221.3289817989184 272.9792681160436 0
45 1 1 1 1 -507.2829613316798 -27.02661222736373 0
46 1 1 1 1 -448.546301226128 -63.7586886152391 0
47 1 1 1 1 429.2449640853645 326.7632553497642 0
48 1 1 1 1 -511.8327631167061 183.0415112798101 0
49 1 1 1 1 -266.7165343619201 -163.0223625868715 0
50 1 1 1 1 -216.6257077844344 370.4250891452722 0
51 1 1 1 1 196.8898676737818 -240.8108628907881 0
52 1 1 1 1 113.4809493086634 -166.092881919069 0
53 1 1 1 1 -254.5402110072669 -400.352544129441 0
54 1 1 1 1 117.8152597234944 -367.6510262382172 0
55 1 1 1 1 -491.1901037462424 -325.9916682011994 0
56 1 1 1 1 -336.4406112962827 171.5014090261383 0
57 1 1 1 1 467.5044140672949 381.0402140851294 0
58 1 1 1 1 -193.0075187117012 78.90676945830191 0
59 1 1 1 1 -658.5791297600729 -53.57226896826439 0
60 1 1 1 1 -173.5270268616044 -195.1197780104637 0
61 1 1 1 1 659.1768681118602 -210.3268072693255 0
62 1 1 1 1 -612.7346342153862 126.7380419037019 0
63 1 1 1 1 -189.3276483140508 -205.9087357675652 0
64 1 1 1 1 641.2804654779777 -251.5481790436161 0
65 1 1 1 1 314.2424113900195 43.47968586258755 0
66 1 1 1 1 -422.7780575749985 292.1591490913312 0
67 1 1 1 1 -24.24143494290317 -260.7625718170488 0
68 1 1 1 1 488.446449746859 -132.6875057038603 0
69 1 1 1 1 -671.9133829241471 51.74019984249132 0
70 1 1 1 1 569.0051584047039 -309.3010942417556 0
71 1 1 1 1 441.5571625515831 64.82248234950392 0
72 1 1 1 1 90.77762280091434 47.30176041860747 0
73 1 1 1 1 -196.024712771588 -141.8202559469128 0
74 1 1 1 1 426.9181805262862 -336.0175317409873 0
75 1 1 1 1 -523.4090409492814 -278.4819769081984 0
76 1 1 1 1 -538.7581316036122 -185.5275857018804 0
77 1 1 1 1 5.514847196894186 283.1051237198891 0
78 1 1 1 1 -79.0894988015163 -154.1110976179556 0
79 1 1 1 1 407.888553352905 -389.7569941161259 0
80 1 1 1 1 617.1985048040187 336.2596982919202 0
81 1 1 1 1 513.2439290822094 125.6452377650721 0
82 1 1 1 1 -188.153098318434 -77.03464291652945 0
83 1 1 1 1 -441.3147546703783 -319.0485510067063 0
84 1 1 1 1 -499.1408581975468 95.98573230047609 0
85 1 1 1 1 283.7687556069766 12.97291956355386 0
86 1 1 1 1 -277.2383351882893 -373.0765963664036 0
87 1 1 1 1 290.9614514296517 -168.0866265301261 0
88 1 1 1 1 -369.0464014247526 352.1240453738679 0
89 1 1 1 1 628.596654800572 -304.1920046658865 0
90 1 1 1 1 481.1666837072956 272.895703200685 0
91 1 1 1 1 539.6596593101549 -67.23826277961489 0
92 1 1 1 1 -222.1772660945762 245.5136824685101 0
93 1 1 1 1 183.1382004689984 319.6267074263593 0
94 1 1 1 1 647.189114788578 -303.3696960467688 0
95 1 1 1 1 582.8865631453105 -306.1434116095705 0
96 1 1 1 1 -257.90607558927 154.2877682014981 0
97 1 1 1 1 580.3908850342662 -99.54200013517271 0
98 1 1 1 1 -326.8507737549047 216.7132792721924 0
99 1 1 1 1 439.1853179941981 -76.95107148433607 0
100 1 1 1 1 52.5245621859284 154.5243408880698 0
101 1 1 1 1 -383.281207685197 175.9158093126503 0
102 1 1 1 1 -433.7213570112307 70.15429357907493 0
103 1 1 1 1 608.3423143244079 38.1102088458177 0
104 1 1 1 1 -419.1495768341762 -247.7995522149753 0
105 1 1 1 1 -10.33259534338664 207.3428445516322 0
106 1 1 1 1 506.5505782873324 -395.4732416328034 0
107 1 1 1 1 201.503419159443 -383.0736067549146 0
108 1 1 1 1 -332.4228306323147 -9.869825932644698 0
109 1 1 1 1 250.3145499059827 265.7105884085469 0
110 1 1 1 1 -308.5385508632593 251.0138574984148 0
111 1 1 1 1 384.5783773587446 -206.8129189645509 0
112 1 1 1 1 -196.7901187696789 135.9491698549069 0
113 1 1 1 1 -607.4789205717117 -358.3171262690788 0
114 1 1 1 1 -8.016785163121892 -291.4000905877454 0
115 1 1 1 1 -653.1380953000916 270.6317606916168 0
116 1 1 1 1 233.1683272762515 398.8247423856058 0
117 1 1 1 1 -295.2427227300167 370.5928030048137 0
118 1 1 1 1 210.0665156856751 -326.0630354896774 0
119 1 1 1 1 -275.1135674817283 5.82887549268587 0
120 1 1 1 1 -537.5574103569201 -292.5772992636173 0
121 1 1 1 1 205.9331611656687 67.97205329566965 0
122 1 1 1 1 -248.0572612161463 -370.0108123616641 0
123 1 1 1 1 -605.2106373789927 -235.1430710097826 0
124 1 1 1 1 -291.5303364094838 232.0815364843449 0
125 1 1 1 1 -169.0989520456618 14.09566220838094 0
126 1 1 1 1 -36.86984201788862 134.5043220014784 0
127 1 1 1 1 623.5603164983621 300.3501080360744 0
128 1 1 1 1 448.9144004484362 -384.2931532580432 0
129 1 1 1 1 585.4265105275568 145.9143172320476 0
130 1 1 1 1 -268.2760999642952 -130.5232450312788 0
131 1 1 1 1 284.8689421725684 -104.3995652173745 0
132 1 1 1 1 -258.4174718770416 -66.41310186840791 0
133 1 1 1 1 -242.3472631011249 -298.1712179255986 0
134 1 1 1 1 -649.1204411174815 -118.5838801148681 0
135 1 1 1 1 -589.4461215660899 120.0543695294201 0
136 1 1 1 1 401.3693781108634 366.7381952531079 0
137 1 1 1 1 589.8649305668553 -208.8850677087063 0
138 1 1 1 1 491.8746570171899 -86.84396791065902 0
139 1 1 1 1 424.5066750263066 11.20440999801375 0
140 1 1 1 1 293.0849994699368 -8.720518289533844 0
141 1 1 1 1 588.2408752597423 105.8518934750067 0
142 1 1 1 1 -652.929602232217 -80.84325103222344 0
143 1 1 1 1 397.2903718583479 -297.8768412693276 0
144 1 1 1 1 571.712016372154 -392.1174494254172 0
145 1 1 1 1 89.5431026663364 -263.1887175785817 0
146 1 1 1 1 -564.2805456813791 383.6891266911778 0
147 1 1 1 1 362.8279908137797 -369.7876464509051 0
148 1 1 1 1 431.9065610405527 369.5056262362429 0
149 1 1 1 1 442.3023325258503 -356.7700225073263 0
150 1 1 1 1 -20.67342807935095 403.0030861242846 0
151 1 1 1 1 -85.14430240912652 396.8534544736168 0
152 1 1 1 1 114.7782444713807 311.9445434262672 0
153 1 1 1 1 451.0995379723584 210.6054348545551 0
154 1 1 1 1 417.8188654110962 -58.63437371957198 0
155 1 1 1 1 -325.5860913076091 250.8587474929154 0
156 1 1 1 1 498.8867405953365 175.4960787807603 0
157 1 1 1 1 341.5279005992415 -49.74887120503333 0
158 1 1 1 1 -577.4161497380953 -392.0978753813473 0
159 1 1 1 1 126.7243159237324 256.5643707495704 0
160 1 1 1 1 176.2683502872909 -35.79939340138182 0
161 1 1 1 1 84.79468671403951 14.96556287033658 0
162 1 1 1 1 213.5705261028685 -59.13298778960662 0
163 1 1 1 1 630.3273266315025 -355.3613569066089 0
164 1 1 1 1 330.1916906023808 -206.2760808694023 0
165 1 1 1 1 -457.0699351956288 -394.9881972802401 0
166 1 1 1 1 157.4682421851562 366.9199449733733 0
167 1 1 1 1 358.1581978490741 -354.2169775553288 0
168 1 1 1 1 166.4415656711408 -212.5926696671773 0
169 1 1 1 1 -21.862296080769 -88.35541906664982 0
170 1 1 1 1 -609.5618666343065 54.63945243056391 0
171 1 1 1 1 -303.3075284487646 -57.18644178156702 0
172 1 1 1 1 -519.599385440167 308.7001566470106 0
173 1 1 1 1 146.2556150511854 -175.3571311390701 0
174 1 1 1 1 -473.8338890885497 206.3086455953789 0
175 1 1 1 1 -340.7234718230848 89.33956332454356 0
176 1 1 1 1 350.0285975150356 -111.9847376273707 0
177 1 1 1 1 -7.487920858070719 340.4021634315111 0
178 1 1 1 1 141.5535628908455 25.08151318096248 0
179 1 1 1 1 654.7323225213809 -11.10889513615615 0
180 1 1 1 1 -411.4995166847224 152.7984809800493 0
181 1 1 1 1 299.1593934801333 -134.4995380016441 0
182 1 1 1 1 566.428111928234 266.2704008654729 0
183 1 1 1 1 -219.1908519466809 -350.4106788078017 0
184 1 1 1 1 72.45774328845131 129.4306566787824 0
185 1 1 1 1 395.3833495177536 302.5754045136958 0
186 1 1 1 1 -248.1720789546566 205.3907448209071 0
187 1 1 1 1 -341.8177106110579 381.665158817023 0
188 1 1 1 1 -639.6764789665284 99.20203996892357 0
189 1 1 1 1 252.5810149090188 158.1074514518653 0
190 1 1 1 1 -602.3351051326691 152.3276385329339 0
191 1 1 1 1 120.6054911447162 -37.17852229142853 0
192 1 1 1 1 383.7076915332914 231.2633743075259 0
193 1 1 1 1 -397.7408585875598 -382.4866545318511 0
194 1 1 1 1 281.708856225642 -379.0086561157041 0
195 1 1 1 1 194.5535060990331 -321.3004138710118 0
196 1 1 1 1 256.0623190308775 -203.2742816410296 0
197 1 1 1 1 -160.7025405137918 349.6808550170798 0
198 1 1 1 1 -528.7073572555054 100.5384224817354 0
199 1 1 1 1 404.4777523140078 -342.7281990442515 0
200 1 1 1 1 -454.684638588555 -102.2737444981211 0
201 1 1 1 1 -230.1983683726443 24.9742939790554 0
202 1 1 1 1 208.878846109191 28.70503982766543 0
203 1 1 1 1 -364.520308150376 -356.3657558670989 0
204 1 1 1 1 58.25132533254027 -75.97654374535993 0
205 1 1 1 1 -193.1094268390285 -121.6640412689761 0
206 1 1 1 1 80.91103196628677 187.0465032063617 0
207 1 1 1 1 384.3975771014529 12.68635475956837 0
208 1 1 1 1 -561.4399179063282 -228.8716277138175 0
209 1 1 1 1 254.8024286280887 303.9131474779132 0
210 1 1 1 1 -51.95528492311397 -368.9983156613569 0
211 1 1 1 1 -109.889820024881 -352.3569152168184 0
212 1 1 1 1 107.0254949103531 -22.75102873832806 0
213 1 1 1 1 168.2767799092409 -179.3644506837469 0
214 1 1 1 1 -547.1831695283614 -213.0343858338383 0
215 1 1 1 1 -642.8016668919815 78.12768694328055 0
216 1 1 1 1 -512.169564257163 -164.8907066226912 0
217 1 1 1 1 250.3208887521551 225.3844451604283 0
218 1 1 1 1 384.2610942039877 -399.791528144074 0
219 1 1 1 1 586.5141650120222 205.7044893704686 0
220 1 1 1 1 606.7085200280884 -390.9268339468461 0
221 1 1 1 1 353.4433353102485 -127.4863413503134 0
222 1 1 1 1 -401.145909111071 -18.17973036375659 0
223 1 1 1 1 542.1746515815981 57.05330404097528 0
224 1 1 1 1 70.94661636513312 -230.1883171568465 0
225 1 1 1 1 212.0929544938336 -108.8230467551048 0
226 1 1 1 1 -500.3934455477616 -236.8106251983607 0
227 1 1 1 1 -602.2949887583943 398.2494891603366 0
228 1 1 1 1 286.225965665039 -263.427429566562 0
229 1 1 1 1 -469.1421146081484 240.4477062281697 0
230 1 1 1 1 80.62247742775186 -0.09680935725261861 0
231 1 1 1 1 -506.6972113024752 -188.4709513428948 0
232 1 1 1 1 -289.1380644305704 391.3257025311045 0
233 1 1 1 1 439.0514892327203 -112.3624420525734 0
234 1 1 1 1 -188.9163122991129 -274.1864683522181 0
235 1 1 1 1 -40.33988464924932 234.1114345408516 0
236 1 1 1 1 -568.3752227876475 17.52004059887624 0
237 1 1 1 1 257.9288586210948 -116.3357671475154 0
238 1 1 1 1 319.4744072323235 20.72070912123372 0
239 1 1 1 1 476.7032676909826 -238.0748850366189 0
240 1 1 1 1 -504.8508694494213 -48.15442494196837 0
241 1 1 1 1 -524.1105297328741 345.4664758896946 0
242 1 1 1 1 22.0375023338507 142.5050449906403 0
243 1 1 1 1 -447.6923669531967 213.7325817624352 0
244 1 1 1 1 -631.2201421909424 -141.5160040599078 0
245 1 1 1 1 145.0112923832448 375.5880135767011 0
246 1 1 1 1 -67.82794058989022 -61.30676362019862 0
247 1 1 1 1 -649.5779729342278 136.9877934961706 0
248 1 1 1 1 -508.7846184125374 367.6840720333759 0
249 1 1 1 1 -495.4411837606286 -382.5257026687887 0
250 1 1 1 1 554.8013375864689 -299.8814449784682 0
251 1 1 1 1 -287.9486950814312 -0.4036266170822159 0
252 1 1 1 1 -609.782255359656 312.2767647278294 0
253 1 1 1 1 581.07022326853 399.4810154983013 0
254 1 1 1 1 100.2234682001588 -373.9246289989195 0
255 1 1 1 1 -302.4768685256974 -389.3925976912789 0
256 1 1 1 1 -653.528309001562 38.08449965613008 0
257 1 1 1 1 -298.3917643283813 296.0069069372895 0
258 1 1 1 1 221.8030101212699 309.740254540595 0
259 1 1 1 1 214.8001778325322 203.146908123927 0
260 1 1 1 1 -237.6446522539321 -72.20069627089572 0
261 1 1 1 1 -171.4336916341589 304.8950666374137 0
262 1 1 1 1 -29.73644706958521 10.74862387236861 0
263 1 1 1 1 -52.63928571797055 -210.9998290276751 0
264 1 1 1 1 -412.5943988107273 -131.7327247862444 0
265 1 1 1 1 443.9980859934524 -305.1959990646521 0
266 1 1 1 1 411.4243706068414 -117.1412700653094 0
267 1 1 1 1 -212.3810318747145 154.0081588282781 0
268 1 1 1 1 -632.8393151133652 -297.6461926664654 0
269 1 1 1 1 312.9063615492241 -316.1355917586063 0
270 1 1 1 1 -61.40427260204566 -306.9897200770544 0
271 1 1 1 1 -111.0523047256566 -385.0953094410779 0
272 1 1 1 1 147.3756962619494 -287.1736014566033 0
273 1 1 1 1 -101.622884029307 -18.67750615571331 0
274 1 1 1 1 -98.51538582372318 9.429975554742065 0
275 1 1 1 1 -614.3851398206226 -15.0265961497704 0
276 1 1 1 1 -272.3324004090192 333.9967793909343 0
277 1 1 1 1 307.1139716734609 -230.8757960986194 0
278 1 1 1 1 560.8218106133469 204.5219565064106 0
279 1 1 1 1 401.2377526302146 -282.6155819369278 0
280 1 1 1 1 -108.4947056050535 -315.0740097334746 0
281 1 1 1 1 562.1229191971255 95.15275775135943 0
282 1 1 1 1 593.0373819275244 -65.99864274934474 0
283 1 1 1 1 -599.2684983868633 136.4238225390386 0
284 1 1 1 1 224.9817112687274 246.7713451040133 0
285 1 1 1 1 59.76939094684671 -4.513016703543235 0
286 1 1 1 1 -127.2609826650136 -97.49068181766002 0
287 1 1 1 1 503.2280328352392 -140.204458407728 0
288 1 1 1 1 -437.1655267116851 -0.6159043959588757 0
289 1 1 1 1 -158.3775599763607 -379.4914072037089 0
290 1 1 1 1 -474.5504973566955 104.36897244127 0
291 1 1 1 1 -583.7982166381514 259.5254369101065 0
292 1 1 1 1 395.0985221005407 -152.0136454780644 0
293 1 1 1 1 -588.8543660276142 69.46871756690757 0
294 1 1 1 1 -659.3630313370713 -25.1221645722877 0
295 1 1 1 1 -377.7308503107876 81.88864245664688 0
296 1 1 1 1 268.8814215580544 312.0006661878473 0
297 1 1 1 1 -289.9891700934741 133.3288696130562 0
298 1 1 1 1 -669.0006093384458 162.9551077623131 0
299 1 1 1 1 177.5473116946104 -53.39385486564051 0
300 1 1 1 1 314.6321189696102 -80.4113214323953 0
301 1 1 1 1 -310.1933735997339 -214.9695139563828 0
302 1 1 1 1 269.3899512579292 390.0217698476076 0
303 1 1 1 1 -27.81262558934422 339.6060145276417 0
304 1 1 1 1 -358.7353893546807 -65.0339740352556 0
305 1 1 1 1 483.5368896185269 -271.8520162769498 0
306 1 1 1 1 570.6180751823233 -129.2388745470844 0
307 1 1 1 1 -266.1207877085515 181.9232929273301 0
308 1 1 1 1 667.4473919555438 147.803013581009 0
309 1 1 1 1 523.9929991225571 -222.4641457129776 0
310 1 1 1 1 478.9737782572808 6.384717123872974 0
311 1 1 1 1 -407.4280748058016 68.99928819799088 0
312 1 1 1 1 81.52442706499328 259.8772327969051 0
313 1 1 1 1 -662.6343423916723 -182.7104933188409 0
314 1 1 1 1 -526.4893778235843 -80.05942886975248 0
315 1 1 1 1 614.2029879513285 200.0655533989569 0
316 1 1 1 1 158.0395338507537 288.1594659676682 0
317 1 1 1 1 630.1119548820988 -45.81065110123409 0
318 1 1 1 1 548.832474477911 391.1938690882254 0
319 1 1 1 1 -168.9983851721855 82.16104678643188 0
320 1 1 1 1 546.9663989534311 368.9380748370938 0
321 1 1 1 1 -664.9296154517435 -307.1452142501582 0
322 1 1 1 1 -88.17559826211779 320.7403801544063 0
323 1 1 1 1 -605.5342397250915 -178.4996066540846 0
324 1 1 1 1 381.2238521473338 401.723987256912 0
325 1 1 1 1 497.6762896019876 -161.6438491655668 0
326 1 1 1 1 -637.2426633350361 239.6242321884484 0
327 1 1 1 1 208.6683701324994 237.5038430195706 0
328 1 1 1 1 422.9520941326944 -195.4746085727685 0
329 1 1 1 1 -241.7992035286701 314.9992393200225 0
330 1 1 1 1 -368.1998441631394 -389.3364094274124 0
331 1 1 1 1 -393.6931402719599 3.759202424105012 0
332 1 1 1 1 411.9202324447512 -84.47875981931537 0
333 1 1 1 1 -539.8166758552142 -359.1378192235609 0
334 1 1 1 1 67.13524857845574 278.3957048243565 0
335 1 1 1 1 -88.42551074502002 31.76409531561314 0
336 1 1 1 1 -234.6052005605396 -148.8226550696454 0
337 1 1 1 1 -188.1282048111895 53.14805516459182 0
338 1 1 1 1 -208.6966976716225 -111.4680703128258 0
339 1 1 1 1 -488.1399812692033 68.57203355828226 0
340 1 1 1 1 30.13281656683038 -66.31683808829715 0
341 1 1 1 1 66.1412611203219 -363.4210243044345 0
342 1 1 1 1 -204.0307987896832 -25.15506977863769 0
343 1 1 1 1 -187.8433684887796 160.3505437427389 0
344 1 1 1 1 -537.9414134908161 277.9997922813512 0
345 1 1 1 1 -302.7164948569482 -262.4660607579272 0
346 1 1 1 1 -334.378977287275 -41.58209446282993 0
347 1 1 1 1 -370.8647850893741 -265.4119373128745 0
348 1 1 1 1 525.3951457809287 -316.0391606624986 0
349 1 1 1 1 -554.155103682597 55.3738078005467 0
350 1 1 1 1 263.2795334795958 -166.5066258924625 0
351 1 1 1 1 -275.1122028492561 220.1046222237433 0
352 1 1 1 1 -340.9005340315081 -201.4637849050384 0
353 1 1 1 1 -166.4405216237002 -142.7279723428088 0
354 1 1 1 1 -187.4019564620121 -20.20868891693304 0
355 1 1 1 1 630.7560152586652 390.6221065020529 0
356 1 1 1 1 -120.1574994038489 383.1455661935037 0
357 1 1 1 1 426.4539729564228 -235.7826868480031 0
358 1 1 1 1 664.4626648872638 45.35942019283911 0
359 1 1 1 1 648.9376290086311 45.94785985974573 0
360 1 1 1 1 -69.22755296591745 343.5170461789717 0
361 1 1 1 1 111.0251169398278 -78.58932211455814 0
362 1 1 1 1 -402.0810936383739 -122.7275067182374 0
363 1 1 1 1 -18.91387572724708 -130.9208366464972 0
364 1 1 1 1 -17.7979087803966 -152.2883553151669 0
365 1 1 1 1 155.8600995882573 57.49227479329522 0
366 1 1 1 1 258.3219781259016 -292.5412405908371 0
367 1 1 1 1 666.7664319131422 360.3346376634854 0
368 1 1 1 1 -478.9593254665927 -274.9503653356907 0
369 1 1 1 1 -266.4452281455741 126.0273425932196 0
370 1 1 1 1 281.4956368934357 -299.3156989805471 0
371 1 1 1 1 -446.6136759303856 -247.2980734445414 0
372 1 1 1 1 -308.150084590519 -84.0123275687571 0
373 1 1 1 1 -66.56014596934361 -268.0287063563642 0
374 1 1 1 1 225.0586018911913 31.03487513010168 0
375 1 1 1 1 -211.2138662010744 29.86948956394759 0
376 1 1 1 1 -215.6918038119184 -308.6446162084242 0
377 1 1 1 1 614.0456355352794 290.1364961040049 0
378 1 1 1 1 -189.8800381370109 383.024347575367 0
379 1 1 1 1 -288.5650689365551 176.5963066403769 0
380 1 1 1 1 -527.0185574409662 119.0845499088939 0
381 1 1 1 1 579.9586171765719 -330.7936576546243 0
382 1 1 1 1 280.2620733310928 -325.0271735649013 0
383 1 1 1 1 233.7745619938034 365.1473595071887 0
384 1 1 1 1 440.1061426506331 297.4157020770458 0
385 1 1 1 1 587.5390812498281 -15.24243224923387 0
386 1 1 1 1 156.8118400465056 29.09707500146942 0
387 1 1 1 1 38.74120298712781 -368.509977229732 0
388 1 1 1 1 152.5998269689095 245.7331410127056 0
389 1 1 1 1 -198.1892823112391 -184.0165253734703 0
390 1 1 1 1 460.9315362881807 -355.0591300643209 0
391 1 1 1 1 53.40730355421026 -269.9893622248596 0
392 1 1 1 1 -464.1841338916966 -207.7016644127979 0
393 1 1 1 1 -155.1865644988963 284.171355713024 0
394 1 1 1 1 617.7979755436589 -277.2160885351111 0
395 1 1 1 1 415.2917684668407 -223.9324052382641 0
396 1 1 1 1 388.5096099901832 359.4091927280761 0
397 1 1 1 1 57.54572838622453 401.4708944623873 0
398 1 1 1 1 -104.7168944177569 198.4990159084918 0
399 1 1 1 1 175.9548739000277 -300.4937589354103 0
400 1 1 1 1 -379.9990057003465 -284.1115830814782 0
401 1 1 1 1 -385.0146845743257 -54.58294709264956 0
402 1 1 1 1 613.9177631580883 -79.2543692000274 0
403 1 1 1 1 -352.402074493288 75.25837632649615 0
404 1 1 1 1 -621.0351023856659 243.242569505491 0
405 1 1 1 1 -180.1939023091102 -334.0292920948918 0
406 1 1 1 1 552.0748287184001 -194.9357972329505 0
407 1 1 1 1 457.9680802460487 354.5068983748733 0
408 1 1 1 1 -511.0076019306444 295.3602350567713 0
409 1 1 1 1 -312.5635692667925 135.0781506852699 0
410 1 1 1 1 -242.7955890337237 -190.1294727824168 0
411 1 1 1 1 -34.31644149122957 -102.2117825050051 0
412 1 1 1 1 15.08022611809256 -28.00462318444247 0
413 1 1 1 1 -151.7998322293599 -358.3583600191141 0
414 1 1 1 1 -445.7431227547051 -302.6370491859784 0
415 1 1 1 1 -629.1160033773197 -374.8998404806137 0
416 1 1 1 1 -217.1466424707468 295.3471479068291 0
417 1 1 1 1 410.4352066211625 54.80606579513108 0
418 1 1 1 1 210.0005820680351 -286.6380047443582 0
419 1 1 1 1 534.1131273648751 -260.3963567322667 0
420 1 1 1 1 277.8587611493218 195.5783086940949 0
421 1 1 1 1 -295.8905874736702 -148.3243302618893 0
422 1 1 1 1 -441.738736290836 -178.7897544236606 0
423 1 1 1 1 -148.3049057223843 -40.47625759026784 0
424 1 1 1 1 -452.3021342015828 103.5628134054215 0
425 1 1 1 1 -625.9068673685316 78.27540510401934 0
426 1 1 1 1 286.273285968478 -71.56800387005352 0
427 1 1 1 1 191.4112762801208 53.0798667492579 0
428 1 1 1 1 -283.9468685450507 -172.7266420233134 0
429 1 1 1 1 -641.5220319197797 178.249570247258 0
430 1 1 1 1 409.3965743943664 379.1583660770165 0
431 1 1 1 1 146.8585779373713 -383.4304989406396 0
432 1 1 1 1 -599.2539600865155 -214.6877817802528 0
433 1 1 1 1 608.5645589843897 -134.3335512002186 0
434 1 1 1 1 448.8903093904524 -46.57379868105987 0
435 1 1 1 1 65.3497313670126 194.9006056868895 0
436 1 1 1 1 -624.4042374432131 -170.6703516861803 0
437 1 1 1 1 -582.7150131221273 51.95724841802587 0
438 1 1 1 1 -31.28399294125148 53.71109418356993 0
439 1 1 1 1 652.355208114594 275.9513579624821 0
440 1 1 1 1 -567.2442450036184 -91.39489062203001 0
441 1 1 1 1 -198.6038474183811 96.37047204606762 0
442 1 1 1 1 573.9030793537303 -225.0794447933078 0
443 1 1 1 1 164.7412375410154 317.9115074829927 0
444 1 1 1 1 -446.212796439116 354.8818504224456 0
445 1 1 1 1 390.4347801677229 36.29453694211142 0
446 1 1 1 1 -383.8730780832237 261.7731107000005 0
447 1 1 1 1 -561.1725298045903 348.1190132407554 0
448 1 1 1 1 -384.9830284064757 296.5817053652646 0
449 1 1 1 1 109.1819655558103 29.49496475530784 0
450 1 1 1 1 -203.5504159846579 -60.30842458220253 0
451 1 1 1 1 -115.0430443948869 168.7241439487037 0
452 1 1 1 1 -284.2339695687143 -271.3539913952437 0
453 1 1 1 1 7.236480891133601 -333.1474341589389 0
454 1 1 1 1 -11.66525673728298 32.68498739355943 0
455 1 1 1 1 475.819842437743 340.865460754843 0
456 1 1 1 1 -159.0432741202732 113.1611850116163 0
457 1 1 1 1 52.93147711484848 -224.8349101393252 0
458 1 1 1 1 57.944899676117 66.44421900891936 0
459 1 1 1 1 67.5414728088579 -133.7916122129419 0
460 1 1 1 1 323.9811548275596 63.50065046340163 0
461 1 1 1 1 -304.2708128533786 207.1787225412908 0
462 1 1 1 1 -198.1382825811183 -222.0778954605985 0
463 1 1 1 1 -602.111558638719 -80.10908050334106 0
464 1 1 1 1 -507.2562056894174 113.9955185754747 0
465 1 1 1 1 371.9160137876057 94.71640399874967 0
466 1 1 1 1 -108.8479616598732 394.4732547465848 0
467 1 1 1 1 -379.3781077167577 -76.32132878035824 0
468 1 1 1 1 58.22427417612993 -92.92675839325366 0
469 1 1 1 1 41.18853244783191 -162.8896936297318 0
470 1 1 1 1 559.9040527080038 303.0066542407697 0
471 1 1 1 1 -78.88879423083591 -214.792153570827 0
472 1 1 1 1 666.6425306320775 -42.6242784438837 0
473 1 1 1 1 441.1672383505189 -174.4191384305244 0
474 1 1 1 1 309.9918910593361 180.8583950486879 0
475 1 1 1 1 -626.4512351009643 -124.4181552759659 0
476 1 1 1 1 -552.1548506563348 222.3758271784897 0
477 1 1 1 1 -561.048074405118 -177.7594765632274 0
478 1 1 1 1 -271.1308160143015 112.5897832283153 0
479 1 1 1 1 299.3327529429718 150.4170029323124 0
480 1 1 1 1 -192.0644643935337 -312.2197042133606 0
481 1 1 1 1 75.50914467600296 390.0088071314768 0
482 1 1 1 1 -399.4727573703599 -163.011408420812 0
483 1 1 1 1 -195.837738757043 204.7643217013036 0
484 1 1 1 1 -654.9758194499827 -381.5811945401503 0
485 1 1 1 1 337.2687307249273 200.2587120083365 0
486 1 1 1 1 168.0069849320391 157.5648075401406 0
487 1 1 1 1 283.6328359309241 174.3347447268194 0
488 1 1 1 1 422.7764709593494 -360.8475491330523 0
489 1 1 1 1 -481.3925166346039 369.5428282394415 0
490 1 1 1 1 -202.7210115139829 242.8600598113531 0
491 1 1 1 1 -132.3006894760682 295.3126150325601 0
492 1 1 1 1 -316.8632218475218 -305.1130115088511 0
493 1 1 1 1 473.3603933045244 -295.0714467552696 0
494 1 1 1 1 -473.0286678299473 16.39692625002968 0
495 1 1 1 1 29.07726666336465 -211.9452227695463 0
496 1 1 1 1 125.0247456867274 23.19182580731492 0
497 1 1 1 1 490.4661745969638 394.7297516978786 0
498 1 1 1 1 544.9534158753123 162.431056817812 0
499 1 1 1 1 273.2573108923623 352.2145373362192 0
500 1 1 1 1 161.4965842167232 -376.6448475495352 0
501 1 1 1 1 -257.9123318000065 -282.6714206310026 0
502 1 1 1 1 3.140890961750551 -233.1396547036997 0
503 1 1 1 1 609.4045846063432 -175.1747687597964 0
504 1 1 1 1 -553.8360007230098 199.7752134161082 0
505 1 1 1 1 334.7717466335557 240.3618857403039 0
506 1 1 1 1 482.8682916283416 -55.25404739626828 0
507 1 1 1 1 -520.3648726597253 -228.1199446170152 0
508 1 1 1 1 -416.7919302972805 122.9522210484787 0
509 1 1 1 1 299.5928621348249 47.83526097160075 0
510 1 1 1 1 300.5033663523129 11.97837675448879 0
511 1 1 1 1 307.6129343715026 -149.1087434676626 0
512 1 1 1 1 -488.1798887523402 178.3930159990034 0
513 1 1 1 1 669.3262219092532 -380.9036220584636 0
514 1 1 1 1 223.9217501921651 -175.7261796668814 0
515 1 1 1 1 -557.3696333478741 140.7799158948135 0
516 1 1 1 1 -363.2303897368392 277.0227541627263 0
517 1 1 1 1 -70.83466710183232 -245.2338646555367 0
518 1 1 1 1 136.5290750356695 -341.9054383940775 0
519 1 1 1 1 -485.9301792944057 -140.0790539550441 0
520 1 1 1 1 197.7733930166224 336.8961276742522 0
521 1 1 1 1 -19.89085591495405 355.9652572602531 0
522 1 1 1 1 451.8669819362078 -94.32701925389068 0
523 1 1 1 1 -323.8645315982635 318.4958406769758 0
524 1 1 1 1 241.7092528976832 -124.5832919598928 0
525 1 1 1 1 103.1344584874654 -177.8488975541496 0
526 1 1 1 1 -223.8276612997061 72.99795537480293 0
527 1 1 1 1 82.05181366958995 -163.7870993172492 0
528 1 1 1 1 206.8184446138533 -35.12659209471747 0
529 1 1 1 1 -339.7474292151707 -158.7333997679216 0
530 1 1 1 1 -243.8919848869417 -206.1946374408715 0
531 1 1 1 1 -403.6903723218302 240.2494035843891 0
532 1 1 1 1 -124.5057731306353 243.5389832497027 0
533 1 1 1 1 -258.8248322013307 -147.8072243642488 0
534 1 1 1 1 670.0501253868594 -20.36230801290427 0
535 1 1 1 1 119.6388086855887 -183.8859243245004 0
536 1 1 1 1 177.3638316028767 51.08500425893129 0
537 1 1 1 1 -558.0827674402714 -143.179764396538 0
538 1 1 1 1 130.1651644659935 305.4907534283587 0
539 1 1 1 1 -73.06756023082944 249.600365509778 0
540 1 1 1 1 347.7415912365576 160.1421482651202 0
541 1 1 1 1 356.8481472356344 -43.77196444031105 0
542 1 1 1 1 -563.6375069926615 88.23715728168908 0
543 1 1 1 1 -600.8090290567186 -57.78077950186162 0
544 1 1 1 1 -440.33983788621 288.136528697252 0
545 1 1 1 1 243.8757182973769 66.95940181048427 0
546 1 1 1 1 622.3023668960175 11.07167703787162 0
547 1 1 1 1 229.9645029974067 349.2524172069249 0
548 1 1 1 1 106.2218493251667 334.9913002237424 0
549 1 1 1 1 -574.6275377573348 -321.3535863598376 0
550 1 1 1 1 -37.91393447174782 -286.2665660870965 0
551 1 1 1 1 375.0153003965109 -99.91256562455139 0
552 1 1 1 1 -585.0565488516455 -270.1881226442966 0
553 1 1 1 1 -326.2687588185797 60.66772184265937 0
554 1 1 1 1 341.6542842956285 297.7043098757674 0
555 1 1 1 1 -299.8689068309365 149.5954309262969 0
556 1 1 1 1 498.6281127057144 78.09218846372103 0
557 1 1 1 1 -331.5395373837553 285.7844249556916 0
558 1 1 1 1 398.5456660377564 172.1815616073489 0
559 1 1 1 1 10.16672962285672 377.3192977146794 0
560 1 1 1 1 -133.1678254941179 390.2243597121068 0
561 1 1 1 1 -317.5194951324717 -71.37516391273906 0
562 1 1 1 1 164.683801096695 95.35019101893363 0
563 1 1 1 1 -341.2526417852973 -302.1733421401457 0
564 1 1 1 1 -620.5480421299728 -292.1251534884186 0
565 1 1 1 1 -198.3193389203247 -331.9499151883413 0
566 1 1 1 1 646.8436741732817 312.8166933925446 0
567 1 1 1 1 -671.1309870356133 -332.4234668813076 0
568 1 1 1 1 -136.8870662675059 -234.8130154577642 0
569 1 1 1 1 328.0405010788901 -46.28164344393068 0
570 1 1 1 1 253.3371842864134 -344.4316104788054 0
571 1 1 1 1 329.8571269481997 -81.56108573170822 0
572 1 1 1 1 570.3297385910007 -89.82318364409068 0
573 1 1 1 1 131.8955768799204 59.39823638379993 0
574 1 1 1 1 39.71127117683383 -268.7219654423595 0
575 1 1 1 1 321.6976336178531 121.2801603578224 0
576 1 1 1 1 -246.8350685040715 178.8988491549022 0
577 1 1 1 1 487.9586450788843 105.0414772913681 0
578 1 1 1 1 -487.8722940964137 -60.69284857708235 0
579 1 1 1 1 102.1927993887692 129.2354958605592 0
580 1 1 1 1 -63.49908510085482 318.7602230376866 0
581 1 1 1 1 377.7886387786238 -186.0538655856448 0
582 1 1 1 1 196.5951290679136 -218.7576015328583 0
583 1 1 1 1 480.9653471395718 47.70537816393075 0
584 1 1 1 1 -196.0292815095214 179.0480528886531 0
585 1 1 1 1 603.2125338862951 -2.135180793989855 0
586 1 1 1 1 -49.60408268999865 163.1285902564625 0
587 1 1 1 1 -540.5793634122738 399.4233094756176 0
588 1 1 1 1 -618.5954013299538 -91.50763513612067 0
589 1 1 1 1 500.1659991686686 -242.8612065226085 0