

2160 atoms
5313 bonds
1 atom types
1 bond types
-360 360 xlo xhi
-216 216 ylo yhi
-32 32 zlo zhi

Atoms #bpm/sphere

1 1 1 1 1 -73.43649630067546 61.79762997980561 0
2 1 1 1 1 -235.1318862958253 -78.30409225582403 0
3 1 1 1 1 -81.92852232520983 215.8322432465984 0
4 1 1 1 1 226.4746778528692 199.9946996639425 0
5 1 1 1 1 -39.42100459290231 -190.4363898003452 0
6 1 1 1 1 67.55671259427083 158.4171655656734 0
7 1 1 1 1 343.7027889695168 58.38409692036271 0
8 1 1 1 1 342.106679085451 -187.1655287298138 0
9 1 1 1 1 -327.0084509661172 -50.81580608216089 0
10 1 1 1 1 112.031761947275 165.8131765168355 0
11 1 1 1 1 -324.2402214922919 200.7414648394396 0
12 1 1 1 1 1.875815462494245 -62.23383586976726 0
13 1 1 1 1 176.5376907102633 -13.07438715921654 0
14 1 1 1 1 43.97660009532234 -86.16795354903826 0
15 1 1 1 1 -232.5900124635787 7.685470523787728 0
16 1 1 1 1 -187.3021379463191 -154.8851375793757 0
17 1 1 1 1 -352.4288465910664 203.8795090697647 0
18 1 1 1 1 -294.9890603937546 151.2477989151417 0
19 1 1 1 1 199.2814923240532 90.08371207813588 0
20 1 1 1 1 -146.9196463700428 -213.1765483824545 0
21 1 1 1 1 291.5696644944786 63.89340578182743 0
22 1 1 1 1 -156.2584533257853 -82.66846832398943 0
23 1 1 1 1 227.4215066949358 160.7882359610881 0
24 1 1 1 1 208.7770059650502 -131.8374038724271 0
25 1 1 1 1 -99.36755857893354 -39.04984527130273 0
26 1 1 1 1 -29.97241934381128 -142.7281160466771 0
27 1 1 1 1 -51.95227300105717 199.1939559498026 0
28 1 1 1 1 187.2550519929737 -151.0803331382036 0
29 1 1 1 1 -234.0159862878253 198.196112309521 0
30 1 1 1 1 120.2307407145607 -23.3170123592532 0
31 1 1 1 1 -159.8017750876569 -110.7845710726125 0
32 1 1 1 1 62.86436088587431 204.9340366460488 0
33 1 1 1 1 -166.7878072689929 63.6182614875687 0
34 1 1 1 1 196.8439058396914 -165.5175479200462 0
35 1 1 1 1 84.28769662499889 -123.8513313061471 0
36 1 1 1 1 -291.572060338047 -117.914052438237 0
37 1 1 1 1 308.0647743428939 58.10418121461419 0
38 1 1 1 1 -310.0873366692932 82.53596935682094 0
39 1 1 1 1 -287.2802519370534 8.555208609623776 0
40 1 1 1 1 -144.5013051648812 106.5311397297975 0
41 1 1 1 1 216.911017434024 -19.24108871498225 0
42 1 1 1 1 202.7360543573419 -155.2139194554194 0
43 1 1 1 1 238.8819732606793 212.2142260816618 0
44 1 1 1 1 -269.4259122770004 168.8127768091943 0
45 1 1 1 1 51.25383036354015 120.1177493081531 0
46 1 1 1 1 -345.0952407858771 -100.8972407333354 0
47 1 1 1 1 -123.7175297136221 -196.5342572521437 0
48 1 1 1 1 -148.6624354085904 -140.8189377598146 0
49 1 1 1 1 310.8980375905653 112.2455369504208 0
50 1 1 1 1 -177.2629162041576 68.97595742114208 0
51 1 1 1 1 -341.5041178456426 -155.6507770552872 0
52 1 1 1 1 321.2162805820519 88.81011186311025 0
53 1 1 1 1 74.49461020606952 -34.87823281309758 0
54 1 1 1 1 -245.9086317691621 -137.6731151559612 0
55 1 1 1 1 176.5317982952251 -147.6353936222077 0
56 1 1 1 1 28.92413800022331 -70.37380579385325 0
57 1 1 1 1 -142.094210425679 38.62132644322992 0
58 1 1 1 1 -223.5485242559283 -130.8284995490801 0
59 1 1 1 1 -329.271814150642 -1.11728629636923 0
60 1 1 1 1 -336.4891868529009 -189.040862576532 0
61 1 1 1 1 -253.5646095860906 130.6641918612921 0
62 1 1 1 1 314.1601433917838 -192.6706063681839 0
63 1 1 1 1 -76.83699192478457 -118.9744920407811 0
64 1 1 1 1 -26.26589774879159 -9.49752681226326 0
65 1 1 1 1 165.9343778146317 -92.32097601236148 0
66 1 1 1 1 -334.1821786791386 126.8718491529963 0
67 1 1 1 1 293.1269206229177 196.0586945750413 0
68 1 1 1 1 354.9191113993491 -188.135803579527 0
69 1 1 1 1 -238.739581958243 145.8595954520864 0
70 1 1 1 1 176.028242643393 -107.5439543851712 0
71 1 1 1 1 261.1632349315546 20.50807760560883 0
72 1 1 1 1 -349.7290170501631 143.8124736634274 0
73 1 1 1 1 34.0999804790934 147.4471587424375 0
74 1 1 1 1 330.4280293714504 53.32654723548774 0
75 1 1 1 1 79.1919061930227 100.7751393941529 0
76 1 1 1 1 307.7702217307044 -1.986085250769094 0
77 1 1 1 1 -219.0281350512452 189.5511475971939 0
78 1 1 1 1 -239.4236677401111 166.1018086051764 0
79 1 1 1 1 -313.7739206872873 35.43404429685177 0
80 1 1 1 1 11.76509272590852 -202.4582384408263 0
81 1 1 1 1 81.12564001765452 -4.85818675948849 0
82 1 1 1 1 -153.5802248151121 73.7251119717705 0
83 1 1 1 1 18.0929505733946 27.15636375463043 0
84 1 1 1 1 -129.4484788397856 161.0035493050391 0
85 1 1 1 1 199.9186556314212 174.2862277787974 0
86 1 1 1 1 159.2570600478782 -83.29775643711108 0
87 1 1 1 1 84.08705012400634 -137.2337612090016 0
88 1 1 1 1 264.2820185458344 205.8273682258234 0
89 1 1 1 1 187.6862153750027 153.5784149805501 0
90 1 1 1 1 -176.9422089315276 31.58503537663205 0
91 1 1 1 1 130.2384426575881 -12.30402781237086 0
92 1 1 1 1 240.7991912405184 46.18947565379835 0
93 1 1 1 1 -163.1735166857571 -21.8333635319992 0
94 1 1 1 1 344.4933781221735 -125.6058427753545 0
95 1 1 1 1 -296.7171048718799 6.779986683502983 0
96 1 1 1 1 -162.3186974553567 211.9701616079834 0
97 1 1 1 1 329.8971819808129 155.6705132415726 0
98 1 1 1 1 3.194460937455062 162.5928808019859 0
99 1 1 1 1 -303.8789537091686 200.1153770912121 0
100 1 1 1 1 38.21520336769004 90.49365298901842 0
101 1 1 1 1 -4.358089035558862 143.4586383434312 0
102 1 1 1 1 302.1498600286889 204.4421849643024 0
103 1 1 1 1 -201.6821165621197 -214.4938084391323 0
104 1 1 1 1 305.1548811035126 -28.55830735735421 0
105 1 1 1 1 -241.4048481973371 -91.01077988057472 0
106 1 1 1 1 -109.8052365862053 -146.2317623946813 0
107 1 1 1 1 -164.424364930722 4.549713234401622 0
108 1 1 1 1 -142.7306757327315 141.1820452505337 0
109 1 1 1 1 204.816481929893 108.243127080713 0
110 1 1 1 1 42.68348339548555 164.8943221932241 0
111 1 1 1 1 96.82029802639721 -58.40174204060352 0
112 1 1 1 1 52.19006038274898 -167.0281375007379 0
113 1 1 1 1 -88.14128717119974 -203.8509598609249 0
114 1 1 1 1 180.6214185299569 196.0935199129079 0
115 1 1 1 1 147.1256597067567 194.0862094583302 0
116 1 1 1 1 -239.2168028435466 -147.3782968498096 0
117 1 1 1 1 205.2272769464236 -213.3947532966482 0
118 1 1 1 1 1.248887026095815 214.4029028479803 0
119 1 1 1 1 323.5177464083611 -74.53975770208913 0
120 1 1 1 1 -131.5049138002746 3.004197885216712 0
121 1 1 1 1 -235.6204142910003 -5.058547729715713 0
122 1 1 1 1 -253.1945440755282 186.3644177799433 0
123 1 1 1 1 -293.9619678566002 190.5724827854728 0
124 1 1 1 1 239.3216858351534 152.9000486034413 0
125 1 1 1 1 334.5113245922348 115.1328707836742 0
126 1 1 1 1 -204.6634556271571 -165.6392494219011 0
127 1 1 1 1 3.550354495182432 -84.72966137442026 0
128 1 1 1 1 255.7473840388901 85.56556621938262 0
129 1 1 1 1 206.8030747422187 187.6639630261425 0
130 1 1 1 1 -287.6513781934766 -85.22570712795726 0
131 1 1 1 1 256.6175236462719 33.12627372230776 0
132 1 1 1 1 -244.6438464604242 -34.77077102539411 0
133 1 1 1 1 -351.1666872819175 102.1081613486015 0
134 1 1 1 1 -76.84108766153014 -202.2027856934959 0
135 1 1 1 1 230.2502762510931 124.1495305884732 0
136 1 1 1 1 -106.593364885657 40.21299490968477 0
137 1 1 1 1 170.3481612617617 26.60115047929602 0
138 1 1 1 1 -143.8033573256552 -46.87566115104852 0
139 1 1 1 1 -357.679142389292 -35.0818027697951 0
140 1 1 1 1 277.0012886918912 -13.18946929658361 0
141 1 1 1 1 138.1376949660318 -78.17356634841778 0
142 1 1 1 1 269.5479862185517 137.3804874634128 0
143 1 1 1 1 -131.6406717711285 92.3330584934663 0
144 1 1 1 1 127.3506932276574 160.8901330065036 0
145 1 1 1 1 187.1643063796349 -80.05824031162359 0
146 1 1 1 1 305.7825463452634 -153.2267580472523 0
147 1 1 1 1 2.216407404854635 58.8508634348774 0
148 1 1 1 1 203.4127121773453 26.8254314595934 0
149 1 1 1 1 3.978411860489132 82.89236048063589 0
150 1 1 1 1 41.08056816516751 59.70342580880447 0
151 1 1 1 1 -166.2582873532485 -146.9936805550617 0
152 1 1 1 1 -354.7395720061388 23.65079908163284 0
153 1 1 1 1 -223.524460912822 176.7879461528174 0
154 1 1 1 1 132.6380558550858 -127.8425438853893 0
155 1 1 1 1 -187.1859228022962 189.6310115714647 0
156 1 1 1 1 -265.5338996425596 -90.32955465387627 0
157 1 1 1 1 -265.7907267919541 -74.89963162790716 0
158 1 1 1 1 -351.5478257397159 -49.84198366189995 0
159 1 1 1 1 -350.4506515206969 -123.1214435546924 0
160 1 1 1 1 268.817016937973 81.86903482544744 0
161 1 1 1 1 105.9127628782286 -165.2685116421858 0
162 1 1 1 1 -86.50952235752021 161.0750408634631 0
163 1 1 1 1 222.723489429339 -144.7135606773493 0
164 1 1 1 1 149.0771432725449 174.1489242794632 0
165 1 1 1 1 256.7252629064319 53.80750207228283 0
166 1 1 1 1 -78.59572235566333 19.53906320650648 0
167 1 1 1 1 136.779551081414 125.9204128922797 0
168 1 1 1 1 88.78893370758908 190.802639400965 0
169 1 1 1 1 -155.3495994068115 137.2807528917614 0
170 1 1 1 1 157.5613297043881 111.4396411178493 0
171 1 1 1 1 -121.5202010308897 193.5483000284308 0
172 1 1 1 1 -173.0740756422408 -204.7590478065636 0
173 1 1 1 1 28.45294762888625 196.199263369497 0
174 1 1 1 1 227.6070908056357 -188.0420636802838 0
175 1 1 1 1 -46.51215301111785 -12.42782215021217 0
176 1 1 1 1 311.2548178174244 78.59021722804141 0
177 1 1 1 1 255.1371613782485 -61.10135074219707 0
178 1 1 1 1 137.9642626334248 173.6527383083731 0
179 1 1 1 1 121.6310675836857 60.51831514631999 0
180 1 1 1 1 71.51986362395161 44.93639338985975 0
181 1 1 1 1 58.1544989054479 -127.873104377635 0
182 1 1 1 1 309.7911636403475 98.90707959074763 0
183 1 1 1 1 -38.70226466668413 -129.9259619750793 0
184 1 1 1 1 351.7928423701522 -144.0818679980326 0
185 1 1 1 1 -159.0700296406863 126.2685472819977 0
186 1 1 1 1 245.83348110164 -69.74005316621313 0
187 1 1 1 1 326.9745289605686 -97.60464488814304 0
188 1 1 1 1 -207.7542458507795 -195.4664604983062 0
189 1 1 1 1 -139.0815558267132 -16.05497914773932 0
190 1 1 1 1 -81.98850519075614 45.67892373096487 0
191 1 1 1 1 -44.25933146197127 189.9630518034905 0
192 1 1 1 1 -263.1582250656417 -17.72697388317599 0
193 1 1 1 1 30.30493283455036 -202.4907936556827 0
194 1 1 1 1 -40.71224658419845 -206.7922266735066 0
195 1 1 1 1 -259.6340141220053 138.6246165950379 0
196 1 1 1 1 122.7440945378827 214.8010274616951 0
197 1 1 1 1 243.1424362615502 181.8177791723219 0
198 1 1 1 1 -326.3987581291571 -201.4250061116498 0
199 1 1 1 1 -186.0489345925577 0.8576387463701565 0
200 1 1 1 1 -175.171931531967 170.0289925895903 0
201 1 1 1 1 -158.6347121854608 40.73452539957498 0
202 1 1 1 1 175.056674926687 211.6344962994886 0
203 1 1 1 1 98.60575675669509 79.53858989416551 0
204 1 1 1 1 -203.5925154290592 -91.51909953745825 0
205 1 1 1 1 -126.0291403274538 115.4139614045847 0
206 1 1 1 1 187.5394472025664 -185.1096459983131 0
207 1 1 1 1 44.83973674497156 179.1212890578448 0
208 1 1 1 1 29.86946481767728 126.7401843979382 0
209 1 1 1 1 297.4419301708989 159.8900214239669 0
210 1 1 1 1 33.36298349449703 -137.4120784456952 0
211 1 1 1 1 329.4349040667203 -36.82066430638002 0
212 1 1 1 1 87.8028279278098 40.25219684083544 0
213 1 1 1 1 -263.4608189414859 -5.322217709364907 0
214 1 1 1 1 -92.4434008090754 -76.10529625438818 0
215 1 1 1 1 -46.44820981790878 52.66566587514666 0
216 1 1 1 1 -228.9678376003559 105.7851943543213 0
217 1 1 1 1 97.07610101063824 60.33077849458454 0
218 1 1 1 1 46.51494211678789 -205.5105026625618 0
219 1 1 1 1 221.655654263365 144.9219285330974 0
220 1 1 1 1 356.275237997353 9.773710686857498 0
221 1 1 1 1 180.6725824314098 11.19427991451425 0
222 1 1 1 1 293.230531224278 -181.1672718516902 0
223 1 1 1 1 -70.14436112176168 47.32246671200579 0
224 1 1 1 1 187.857605074197 135.9219344872052 0
225 1 1 1 1 46.19997869213023 -57.83736441454488 0
226 1 1 1 1 248.155415549073 202.6120231405852 0
227 1 1 1 1 -80.21210439608416 32.62653767302101 0
228 1 1 1 1 -175.6255631474051 113.0820512217279 0
229 1 1 1 1 288.3995046730967 -128.7338415248038 0
230 1 1 1 1 208.4159246987127 137.0692463218251 0
231 1 1 1 1 36.04038911559002 43.30046378181964 0
232 1 1 1 1 -226.8286821419951 152.09446110718 0
233 1 1 1 1 -327.6194043989395 211.4084252397995 0
234 1 1 1 1 -319.4325896760121 -102.299503495178 0
235 1 1 1 1 124.8604568746272 -211.3731517425014 0
236 1 1 1 1 28.60586646589348 -109.3646176641398 0
237 1 1 1 1 -196.327916262014 -69.90852975521909 0
238 1 1 1 1 6.264959998033987 -7.744535035091701 0
239 1 1 1 1 144.0135138787542 -61.90995055161713 0
240 1 1 1 1 -129.8278877642816 210.1571230271478 0
241 1 1 1 1 153.2164462806092 -148.794948738941 0
242 1 1 1 1 261.2930348404642 -129.1679556665603 0
243 1 1 1 1 -5.499875384423262 -119.5266951603098 0
244 1 1 1 1 87.19646358439394 -47.067352963242 0
245 1 1 1 1 270.7630403595069 -119.7889079520999 0
246 1 1 1 1 -157.7551769903243 -3.531318339004258 0
247 1 1 1 1 198.0533786041149 -17.93002760670123 0
248 1 1 1 1 -252.9124706806606 -109.9547716299911 0
249 1 1 1 1 -35.53766532566004 -89.67226842428363 0
250 1 1 1 1 -313.1734450333609 -121.211070659719 0
251 1 1 1 1 -127.6126625807868 -173.460499416336 0
252 1 1 1 1 245.6901698804252 88.03034343999008 0
253 1 1 1 1 192.3439256437454 6.199155667968597 0
254 1 1 1 1 116.0344761464951 68.72641342760153 0
255 1 1 1 1 348.8554156400894 -46.3660788020639 0
256 1 1 1 1 -254.0141944394604 -153.3025601726528 0
257 1 1 1 1 264.0419717652866 44.91291055888445 0
258 1 1 1 1 -185.9874686322603 -136.2109366417782 0
259 1 1 1 1 -246.4244219769506 -8.533955170730508 0
260 1 1 1 1 -346.0699149903456 187.7054873431773 0
261 1 1 1 1 186.5490672423431 51.61273996579871 0
262 1 1 1 1 -280.0405831763131 125.4174212449262 0
263 1 1 1 1 -248.5864652992394 37.69291492436858 0
264 1 1 1 1 -232.009065088194 184.3962979603687 0
265 1 1 1 1 136.3777283187622 30.70427063205494 0
266 1 1 1 1 12.69093122353058 -52.95161357849176 0
267 1 1 1 1 123.0549860807544 99.33888853477038 0
268 1 1 1 1 22.27957133496994 -139.5954523103061 0
269 1 1 1 1 270.3014715025928 -84.32226914983741 0
270 1 1 1 1 83.18511074492193 81.26388504801247 0
271 1 1 1 1 126.4717596351242 -95.06731996807872 0
272 1 1 1 1 270.0231097571225 62.21722449899477 0
273 1 1 1 1 -92.25463169444424 -122.6229951345758 0
274 1 1 1 1 322.3036271332281 118.1513141879941 0
275 1 1 1 1 -101.0100111900077 -140.1989026265306 0
276 1 1 1 1 296.8457304960376 9.70406525979655 0
277 1 1 1 1 -183.747635173691 -40.49602356766798 0
278 1 1 1 1 -345.3172143616631 153.7726879253258 0
279 1 1 1 1 225.725446143393 173.2683141233124 0
280 1 1 1 1 -158.4492877748929 30.4032148546849 0
281 1 1 1 1 80.53048933429642 168.9797032021808 0
282 1 1 1 1 45.39743361718445 0.4818222127044578 0
283 1 1 1 1 -51.30511312300871 36.67557919078897 0
284 1 1 1 1 324.8462121855407 20.2873379484308 0
285 1 1 1 1 -11.60837857338697 203.7941664208245 0
286 1 1 1 1 113.1678822485181 -125.1828191762267 0
287 1 1 1 1 -168.5602315819082 -87.29294150043154 0
288 1 1 1 1 -143.3987467086864 -189.1675770671757 0
289 1 1 1 1 -135.5701327722642 -207.0671903845496 0
290 1 1 1 1 -97.13700290258032 89.41847980729273 0
291 1 1 1 1 60.14022445529736 -142.4799712208524 0
292 1 1 1 1 -235.3614028650421 38.54688539964477 0
293 1 1 1 1 279.8723267380727 -56.47405644274511 0
294 1 1 1 1 -282.3985951439906 -101.6096256453453 0
295 1 1 1 1 49.45461799587565 84.66039660469744 0
296 1 1 1 1 -240.062610486076 106.0809862597859 0
297 1 1 1 1 -160.7355504639025 179.5872689178756 0
298 1 1 1 1 -324.5009964576224 -24.76884931987254 0
299 1 1 1 1 182.4686398148828 -196.5447462440313 0
300 1 1 1 1 -108.557804755189 -169.6252555582369 0
301 1 1 1 1 320.6019342325947 -166.1697786682599 0
302 1 1 1 1 357.7699639735641 -133.7423628452144 0
303 1 1 1 1 294.3350583253182 108.2020697763754 0
304 1 1 1 1 325.2869506244881 108.5843630578487 0
305 1 1 1 1 334.9081526632011 -50.98970134045084 0
306 1 1 1 1 195.3793918083719 -90.65288140597257 0
307 1 1 1 1 -347.8931626756333 -210.4151519950966 0
308 1 1 1 1 -298.0823359474991 128.1207397764987 0
309 1 1 1 1 274.5895497812003 -150.1216282671235 0
310 1 1 1 1 212.7099825773649 -203.4134826803037 0
311 1 1 1 1 -276.9969661428993 -18.55299542414855 0
312 1 1 1 1 -325.7531305366196 -185.6016900966779 0
313 1 1 1 1 3.725844849409498 -34.16380939137736 0
314 1 1 1 1 -282.3274940810857 208.436680907271 0
315 1 1 1 1 -348.1414434123234 -181.6769385172959 0
316 1 1 1 1 -83.35203460626349 89.90846075245793 0
317 1 1 1 1 -109.0460594421075 -77.11052542938265 0
318 1 1 1 1 -46.51586822573535 136.5224872629254 0
319 1 1 1 1 54.65008620443621 -104.2798914745768 0
320 1 1 1 1 -0.1336150744411384 180.4877812779661 0
321 1 1 1 1 108.1148135020412 211.2901077439377 0
322 1 1 1 1 -71.40975045512937 197.9784868017278 0
323 1 1 1 1 -14.5569928381812 110.0594660310456 0
324 1 1 1 1 -357.3509651813653 -213.7092335135166 0
325 1 1 1 1 -82.55353519819192 -103.9914817739708 0
326 1 1 1 1 -52.37816284654366 -211.124418749488 0
327 1 1 1 1 129.9459445889039 87.25537884738355 0
328 1 1 1 1 188.3092034017105 -43.86607138484288 0
329 1 1 1 1 -129.1261683513629 -145.0778726403632 0
330 1 1 1 1 229.5747321536969 -66.28906134804655 0
331 1 1 1 1 -222.1550170094683 -4.484984712815987 0
332 1 1 1 1 -80.86351404557138 139.3527698323059 0
333 1 1 1 1 320.1210469396274 -63.85025564421883 0
334 1 1 1 1 -302.364979961591 -73.24907600947557 0
335 1 1 1 1 154.0287832520892 -204.2442816318493 0
336 1 1 1 1 5.618852826383545 -108.2027683129756 0
337 1 1 1 1 -62.1662330981269 34.13495182223619 0
338 1 1 1 1 -282.2457947713954 -139.6731364402819 0
339 1 1 1 1 -270.3848419330221 -124.5652763000872 0
340 1 1 1 1 331.6048714325992 69.01145581440403 0
341 1 1 1 1 329.2076546234359 -210.5133601080136 0
342 1 1 1 1 72.6429000844816 -103.7586860455062 0
343 1 1 1 1 -321.7860106328888 -142.3017327135318 0
344 1 1 1 1 148.8316524267918 -5.243587707772036 0
345 1 1 1 1 -93.72260989506293 122.0886708345929 0
346 1 1 1 1 -142.9807141746396 -155.8592798803061 0
347 1 1 1 1 163.5693978740311 213.4577024190161 0
348 1 1 1 1 238.2896580282688 165.3292534447822 0
349 1 1 1 1 -15.98592572235958 -163.4999373444909 0
350 1 1 1 1 242.8541915240069 -48.53037590073595 0
351 1 1 1 1 194.1674653733825 98.44046448503951 0
352 1 1 1 1 345.6937560524226 30.80632881401056 0
353 1 1 1 1 55.78033522262092 -28.34449433973185 0
354 1 1 1 1 -346.2011521605814 121.3794888280582 0
355 1 1 1 1 160.1145323290557 -119.9510945590092 0
356 1 1 1 1 348.6020494619808 47.66355118209043 0
357 1 1 1 1 153.6163204972781 -136.4116143405042 0
358 1 1 1 1 -203.9594776890571 -136.6381313880566 0
359 1 1 1 1 319.3772814873438 51.29997230291576 0
360 1 1 1 1 -141.9895612431999 16.11583822427113 0
361 1 1 1 1 -74.29774857242211 4.51845416692467 0
362 1 1 1 1 -11.83315543834323 -100.3265468974658 0
363 1 1 1 1 -96.72288981813506 -59.45237730402238 0
364 1 1 1 1 -260.4883070397934 79.9773762539624 0
365 1 1 1 1 268.1727929046249 120.8255946477387 0
366 1 1 1 1 -159.7782022927266 -58.75767563150737 0
367 1 1 1 1 -100.8289384796241 -182.5986389414565 0
368 1 1 1 1 235.2705264934731 -104.3080460572812 0
369 1 1 1 1 335.6513261776657 12.30031469181682 0
370 1 1 1 1 -123.3544748298097 46.12735134392847 0
371 1 1 1 1 299.9160010743492 -127.7304821612826 0
372 1 1 1 1 -65.15906626229014 134.2797227389067 0
373 1 1 1 1 -225.2009185769603 -172.3812913438589 0
374 1 1 1 1 -103.2827444337885 -87.75339473612581 0
375 1 1 1 1 147.0793505961084 99.04181591065537 0
376 1 1 1 1 290.7537578481954 38.98264680164343 0
377 1 1 1 1 -279.7078135534478 -6.550947591797012 0
378 1 1 1 1 -171.443576157617 -4.852064651074016 0
379 1 1 1 1 251.8354441361926 24.79431997881034 0
380 1 1 1 1 336.1363456397564 100.6435890114359 0
381 1 1 1 1 -41.29978750527806 -169.1573969306477 0
382 1 1 1 1 276.8630158774461 167.4658833623565 0
383 1 1 1 1 355.8849619253124 -171.6318189909893 0
384 1 1 1 1 -201.3989818544157 57.27814533231651 0
385 1 1 1 1 -69.81574934096096 178.1242673362082 0
386 1 1 1 1 316.0925375885742 -138.9393044962304 0
387 1 1 1 1 -2.56072680517201 170.7926312156921 0
388 1 1 1 1 -18.69235607150893 162.8688854683284 0
389 1 1 1 1 -114.5003003236991 141.1534361153227 0
390 1 1 1 1 117.9917352631667 -77.49873783035653 0
391 1 1 1 1 -265.0763015128233 40.47684828102962 0
392 1 1 1 1 -138.2480834667263 -116.4718004954053 0
393 1 1 1 1 -50.06555917388818 174.1494975863083 0
394 1 1 1 1 261.7322282370266 -90.54280491774388 0
395 1 1 1 1 123.3024563874133 203.7677107243228 0
396 1 1 1 1 338.4878251859756 -6.445751626571848 0
397 1 1 1 1 -53.4244520128205 -115.4944141020238 0
398 1 1 1 1 314.6036795410702 -12.53674571534847 0
399 1 1 1 1 18.45552026017185 -119.9611613059418 0
400 1 1 1 1 101.0069811142572 -195.8693904655304 0
401 1 1 1 1 173.0692715648057 -199.685422379648 0
402 1 1 1 1 189.8585500834537 30.96304460460328 0
403 1 1 1 1 -264.0581927947227 92.6228117615035 0
404 1 1 1 1 -38.15236171549833 98.10759902847195 0
405 1 1 1 1 275.0298395177438 91.29640130232025 0
406 1 1 1 1 -34.05535260345584 -72.12893824642455 0
407 1 1 1 1 24.23994829862085 -173.8188411445481 0
408 1 1 1 1 -254.1811837372681 -191.1667585987001 0
409 1 1 1 1 67.76733945292938 -3.90654892286679 0
410 1 1 1 1 31.97250714588506 -3.015828473530945 0
411 1 1 1 1 -200.6992385566944 -6.044800227639968 0
412 1 1 1 1 -58.42975751585897 125.9017041688391 0
413 1 1 1 1 -221.8897330797683 113.3126956312857 0
414 1 1 1 1 -160.9919049252607 -158.4584224903525 0
415 1 1 1 1 243.5884077461591 -25.05904324044582 0
416 1 1 1 1 -282.6678490756217 -195.5716642474945 0
417 1 1 1 1 -299.4950286100206 176.8156283669294 0
418 1 1 1 1 358.2790730335562 -51.95454830706069 0
419 1 1 1 1 -282.8144078251245 -63.08847230395949 0
420 1 1 1 1 -53.73026543516039 -132.5584898382182 0
421 1 1 1 1 -233.310473833114 -214.0170241917437 0
422 1 1 1 1 278.9818995926747 28.32861537600834 0
423 1 1 1 1 -261.1316866567515 -127.5262308270206 0
424 1 1 1 1 -44.38395514017282 -153.2262233094081 0
425 1 1 1 1 -126.8474123020186 71.16190110746226 0
426 1 1 1 1 -303.7556736170433 164.7223831392141 0
427 1 1 1 1 -281.5964524351259 -183.7335726942135 0
428 1 1 1 1 284.6371757185754 211.780907681199 0
429 1 1 1 1 298.5799836828672 -100.1357633897756 0
430 1 1 1 1 -213.9905303556868 -45.15817951194461 0
431 1 1 1 1 155.910501109753 -103.0023951098283 0
432 1 1 1 1 -62.33698224304959 9.862610351781399 0
433 1 1 1 1 -211.4169562420813 17.78296688549011 0
434 1 1 1 1 -25.12946907303211 4.355213963209252 0
435 1 1 1 1 195.0741885763827 -55.96759767165662 0
436 1 1 1 1 191.9055078197988 -142.0018454317784 0
437 1 1 1 1 213.0077294676657 -165.7589186933714 0
438 1 1 1 1 149.7533519709606 -50.44789710673945 0
439 1 1 1 1 -5.698218662462296 -207.9190320708241 0
440 1 1 1 1 -330.8968031074925 81.45841288504056 0
441 1 1 1 1 -93.88904372456562 -28.51466593300393 0
442 1 1 1 1 132.14720726204 -159.9220053402957 0
443 1 1 1 1 251.7455098171943 -35.25067574734095 0
444 1 1 1 1 265.7488924912443 -25.74069067478271 0
445 1 1 1 1 351.2699267741721 -15.833250833671 0
446 1 1 1 1 -129.3922296975796 -69.80986485401513 0
447 1 1 1 1 -227.213822763213 -18.51321537316554 0
448 1 1 1 1 -111.5298364848942 -54.73321195010237 0
449 1 1 1 1 2.616626913611526 195.3654534852837 0
450 1 1 1 1 235.0792808335227 34.06981172037106 0
451 1 1 1 1 248.3841859530164 -121.0086070651557 0
452 1 1 1 1 260.3696205063392 -45.88505231461178 0
453 1 1 1 1 355.7926613417916 197.2893680986666 0
454 1 1 1 1 71.84206369271118 -190.4819623822634 0
455 1 1 1 1 -179.7701818909739 -192.3248262570338 0
456 1 1 1 1 -93.75210224886558 111.6121290847256 0
457 1 1 1 1 -322.3758177407985 24.6086524174959 0
458 1 1 1 1 -93.08071077427309 -17.82261580388311 0
459 1 1 1 1 -185.0803432448722 164.5469069505678 0
460 1 1 1 1 -293.9596124217536 210.7875590615114 0
461 1 1 1 1 126.4776905162943 -175.477933735582 0
462 1 1 1 1 268.0976047884121 -159.8280625100763 0
463 1 1 1 1 39.45919648876043 -112.5981916953494 0
464 1 1 1 1 24.31012033776625 -128.7399496267715 0
465 1 1 1 1 187.2679647468901 115.922002804695 0
466 1 1 1 1 -245.7054746268016 -170.0471146863069 0
467 1 1 1 1 -219.7562162003582 144.5407077889828 0
468 1 1 1 1 -355.8934289085311 -142.3248387364947 0
469 1 1 1 1 207.6772941301953 -188.503832348878 0
470 1 1 1 1 -64.36150553186877 -187.6758138884334 0
471 1 1 1 1 65.4221724674224 18.52813250351426 0
472 1 1 1 1 326.2578534223969 -8.09756508934862 0
473 1 1 1 1 -119.2331208514976 -64.7390545800329 0
474 1 1 1 1 -330.0698540405848 -149.0492291138963 0
475 1 1 1 1 -46.06876145818751 -30.90858832796494 0
476 1 1 1 1 343.5791194776036 -113.9465982070923 0
477 1 1 1 1 126.1954592816128 4.261268631332115 0
478 1 1 1 1 -48.82983090293379 -197.1888503959077 0
479 1 1 1 1 265.6795566015093 95.74932321390804 0
480 1 1 1 1 284.3288328257492 155.6842614271442 0
481 1 1 1 1 40.67354141820573 120.8210016534416 0
482 1 1 1 1 -334.2865154260991 171.1667564495303 0
483 1 1 1 1 251.2677429379929 -80.8324052327624 0
484 1 1 1 1 -296.6792472516567 -187.9237299052849 0
485 1 1 1 1 105.7531781873073 -182.3753846644963 0
486 1 1 1 1 132.2131244907257 61.67911745983037 0
487 1 1 1 1 -4.685931943566402 -10.25913090226302 0
488 1 1 1 1 -35.12324922576863 -113.8164095201893 0
489 1 1 1 1 -249.2531300656244 -85.43286083692803 0
490 1 1 1 1 -17.91588376383743 75.36584888209916 0
491 1 1 1 1 77.82443681375821 -173.3576100416382 0
492 1 1 1 1 216.8324796530076 -48.24424380754894 0
493 1 1 1 1 -127.3288117128663 -8.046341997506772 0
494 1 1 1 1 -205.3190318906056 6.095662260044065 0
495 1 1 1 1 -225.2663663436361 125.6922627009412 0
496 1 1 1 1 77.33396195485494 212.688970670925 0
497 1 1 1 1 -184.6269692846406 20.55178989639006 0
498 1 1 1 1 108.1246350574283 25.80142043588256 0
499 1 1 1 1 68.32807201048036 102.6211938285466 0
500 1 1 1 1 331.9169795970877 -161.0069854947357 0
501 1 1 1 1 -331.7326377761837 -73.76761249184401 0
502 1 1 1 1 108.7101745824454 -54.02756860234851 0
503 1 1 1 1 -135.3150451707906 -35.98232571081519 0
504 1 1 1 1 -37.90580549581847 116.3931619809607 0
505 1 1 1 1 -314.5925235370736 99.35071751979996 0
506 1 1 1 1 257.3520237799182 -170.2257254900702 0
507 1 1 1 1 302.4770362331934 -213.1844275556711 0
508 1 1 1 1 -87.2906307085596 -171.7763675674127 0
509 1 1 1 1 209.594220291024 66.54559528650196 0
510 1 1 1 1 -189.2058110015496 -49.6250052093302 0
511 1 1 1 1 0.5175606357556148 20.43445448751962 0
512 1 1 1 1 71.94861533379321 144.034567766435 0
513 1 1 1 1 212.5321656467995 -152.8950143186925 0
514 1 1 1 1 222.7516569103241 -92.52719257285173 0
515 1 1 1 1 214.3700490822167 29.40615441462725 0
516 1 1 1 1 -246.6102556218635 121.3835832521879 0
517 1 1 1 1 319.0961017959013 61.0733518477748 0
518 1 1 1 1 169.9441710793218 -0.2779981511825724 0
519 1 1 1 1 -283.6827309557425 51.33709559627943 0
520 1 1 1 1 124.553426731275 139.1758324122459 0
521 1 1 1 1 -155.4418518441365 192.4748143960148 0
522 1 1 1 1 136.997374541623 -35.29285047208916 0
523 1 1 1 1 45.68366311958164 146.8874932172078 0
524 1 1 1 1 148.5753066792101 125.8496641821697 0
525 1 1 1 1 111.5227256521477 179.8114404669933 0
526 1 1 1 1 62.65613694788857 39.58709374676354 0
527 1 1 1 1 15.37035118669337 -63.99909994588955 0
528 1 1 1 1 320.4950479006777 140.1840186324164 0
529 1 1 1 1 279.3468464706921 -76.30432356413161 0
530 1 1 1 1 -145.4318757181806 215.3050783743785 0
531 1 1 1 1 238.9827209725087 -3.916061153259733 0
532 1 1 1 1 157.3445874131737 -59.58649256158444 0
533 1 1 1 1 -223.8373566616938 203.5890499707499 0
534 1 1 1 1 -46.36290628437047 -1.537930637739436 0
535 1 1 1 1 -191.2811841365003 -191.1203689457741 0
536 1 1 1 1 -33.46343827557541 -27.87859728816275 0
537 1 1 1 1 -178.6156414078601 -18.6456586088822 0
538 1 1 1 1 162.7896155491471 190.2915610002293 0
539 1 1 1 1 -258.8119377098304 29.79217920020597 0
540 1 1 1 1 295.1306498220395 -39.56561805286651 0
541 1 1 1 1 -197.4630242823928 215.1249823490484 0
542 1 1 1 1 -20.87308824261407 19.11722867688954 0
543 1 1 1 1 -96.97000451930455 2.179635911344633 0
544 1 1 1 1 -10.67729206477509 30.6295347477876 0
545 1 1 1 1 216.8656129761017 -8.800771214950203 0
546 1 1 1 1 358.5629004684624 130.8046464859863 0
547 1 1 1 1 5.581500327848971 -151.8012657557041 0
548 1 1 1 1 -284.7623347822794 162.9827548207252 0
549 1 1 1 1 -70.36250839563189 113.4472499686085 0
550 1 1 1 1 -55.02313067292107 -17.37275879698143 0
551 1 1 1 1 169.4748345028927 -126.4105382962902 0
552 1 1 1 1 -200.7652037870388 -31.7904801846924 0
553 1 1 1 1 -268.7489528602764 188.1886876564117 0
554 1 1 1 1 251.7053862147396 -92.40863224856432 0
555 1 1 1 1 -323.6833801215942 -82.78713115538218 0
556 1 1 1 1 155.5335612489528 57.0009519014298 0
557 1 1 1 1 -290.1047065891249 -17.69042377417816 0
558 1 1 1 1 295.675602518028 -202.569180072395 0
559 1 1 1 1 79.03293253034798 54.95270143580427 0
560 1 1 1 1 67.36577450668847 -123.3811086708386 0
561 1 1 1 1 274.8570689686839 46.53008604502799 0
562 1 1 1 1 31.29265423954649 114.5782082376641 0
563 1 1 1 1 115.7390854102213 -198.6190626116987 0
564 1 1 1 1 297.6684193474409 -167.8657809881808 0
565 1 1 1 1 246.3198684435092 -192.9704961244319 0
566 1 1 1 1 -247.5441140748256 -46.78739903296582 0
567 1 1 1 1 -70.46543870161639 -142.4191094950875 0
568 1 1 1 1 -267.8603245010213 -191.2662787225508 0
569 1 1 1 1 -357.6552231746451 162.5443682259586 0
570 1 1 1 1 -106.1545505062536 117.1817412183981 0
571 1 1 1 1 -234.4323065976896 133.5532466823103 0
572 1 1 1 1 173.2800346661287 -73.14795547592885 0
573 1 1 1 1 100.7222313109253 149.7968975585076 0
574 1 1 1 1 -122.1989289510714 84.74638492873498 0
575 1 1 1 1 -235.4643307093907 121.3164107416118 0
576 1 1 1 1 341.4411246052733 157.1697107211091 0
577 1 1 1 1 -85.12911399866209 127.4872565352592 0
578 1 1 1 1 251.7197454102691 -2.716333961977227 0
579 1 1 1 1 -301.9716660425512 -97.31417197628988 0
580 1 1 1 1 309.9097924217223 145.2972698077961 0
581 1 1 1 1 -355.23363521848 -80.04977585353834 0
582 1 1 1 1 249.6587411091766 168.3323920146149 0
583 1 1 1 1 -165.6456766927534 162.1907138357981 0
584 1 1 1 1 -197.5593851564094 39.11292259018177 0
585 1 1 1 1 48.13315787627852 -124.8040595943718 0
586 1 1 1 1 344.2951778886674 114.9084370426518 0
587 1 1 1 1 147.1708305385907 -192.5536380997935 0
588 1 1 1 1 -354.0662388272368 175.9451662216832 0
589 1 1 1 1 200.9197505421955 -3.611039956608266 0
590 1 1 1 1 116.9106975200028 123.7629442389728 0