

722 atoms
1781 bonds
1 atom types
1 bond types
-160 160 xlo xhi
-160 160 ylo yhi
-32 32 zlo zhi

Atoms #bpm/sphere

1 1 1 1 1 137.6029844419871 -153.7233355699683 0
2 1 1 1 1 -72.08477570438777 140.3743705546784 0
3 1 1 1 1 -33.95458107786965 139.8743539900064 0
4 1 1 1 1 53.17260347641087 19.29457653319756 0
5 1 1 1 1 -3.463112240474658 -63.79831989849045 0
6 1 1 1 1 -102.3681295998603 -86.21289740114584 0
7 1 1 1 1 35.43557431732282 -21.19158090361023 0
8 1 1 1 1 46.1118525333618 94.61352510530469 0
9 1 1 1 1 -21.87818051477035 -114.1230860384493 0
10 1 1 1 1 63.45398926375282 90.71659006573697 0
11 1 1 1 1 99.46833101218692 56.26738955142739 0
12 1 1 1 1 57.10572097846097 35.74978347663003 0
13 1 1 1 1 55.46904965436141 100.4302226182043 0
14 1 1 1 1 127.7512985476338 84.519255465231 0
15 1 1 1 1 -26.69958589108504 -146.0687409895823 0
16 1 1 1 1 36.87613356006139 76.65926272302846 0
17 1 1 1 1 71.69152223951753 134.7330651942802 0
18 1 1 1 1 -27.08226162797718 -128.1641517230048 0
19 1 1 1 1 49.59466011677671 -99.40136655177859 0
20 1 1 1 1 24.92033375359523 20.45407338602291 0
21 1 1 1 1 -10.50135712614826 -2.564294847020136 0
22 1 1 1 1 -133.0242846715824 -124.9401657345995 0
23 1 1 1 1 79.21346722678078 -87.35602452646432 0
24 1 1 1 1 -61.13833406998725 -39.72249305088894 0
25 1 1 1 1 100.1316977539792 -76.80305417271093 0
26 1 1 1 1 148.9664078548936 85.17012531028183 0
27 1 1 1 1 49.12858826726972 58.84771477979285 0
28 1 1 1 1 125.1388696243921 10.8640237994947 0
29 1 1 1 1 -25.72926340092664 26.25371722257717 0
30 1 1 1 1 -95.38495189171094 62.3674364530869 0
31 1 1 1 1 125.4008552004014 -151.0709667901143 0
32 1 1 1 1 -63.3455846522551 -49.23956365308757 0
33 1 1 1 1 43.51007653390511 132.6053319746038 0
34 1 1 1 1 -154.781651275475 151.6961264921816 0
35 1 1 1 1 -102.049368009918 151.2680909983944 0
36 1 1 1 1 0.03163758347585599 -4.491282990766933 0
37 1 1 1 1 95.90682494243706 0.2157512911936692 0
38 1 1 1 1 32.63685348549134 149.9611766501972 0
39 1 1 1 1 -26.95406502128145 52.03971491942372 0
40 1 1 1 1 -79.59875189051755 27.50646039639943 0
41 1 1 1 1 -79.31481739001931 93.02710157155516 0
42 1 1 1 1 -88.75884348628586 -24.68250003823698 0
43 1 1 1 1 108.2860384913291 98.38360005118108 0
44 1 1 1 1 155.8650433655562 148.2739930258239 0
45 1 1 1 1 121.8327769129652 -116.0972073918512 0
46 1 1 1 1 33.24263925490496 -122.722200125898 0
47 1 1 1 1 -46.50446309669661 -65.92138538199947 0
48 1 1 1 1 113.1714473679773 10.94696725669456 0
49 1 1 1 1 89.83952404405218 50.32857846101183 0
50 1 1 1 1 -53.9632685405584 -101.8654762762454 0
51 1 1 1 1 -144.3834878215555 113.3028810602547 0
52 1 1 1 1 102.8111453616824 45.99731521294024 0
53 1 1 1 1 80.86351621225691 43.91153569257338 0
54 1 1 1 1 -54.67526163830496 -159.0453509862261 0
55 1 1 1 1 -104.487852547975 -147.4821891076955 0
56 1 1 1 1 140.0649393058218 -72.66362805723588 0
57 1 1 1 1 10.50017702838505 64.59819635375271 0
58 1 1 1 1 137.334408135486 -95.12783654745753 0
59 1 1 1 1 -133.1671810996764 -104.7081857585367 0
60 1 1 1 1 -10.65462732086274 99.93598198202204 0
61 1 1 1 1 27.75137781604667 40.53026830950921 0
62 1 1 1 1 45.58695398088221 6.638034203388344 0
63 1 1 1 1 -129.6996888232463 56.93519941342956 0
64 1 1 1 1 -144.9897073108122 -134.2135786979653 0
65 1 1 1 1 -1.950717996997753 128.3513574638945 0
66 1 1 1 1 146.6525104721325 -55.31737246880385 0
67 1 1 1 1 97.20622245247319 -108.2012422732948 0
68 1 1 1 1 -13.44752354647326 -93.16946167412868 0
69 1 1 1 1 106.2579516750558 109.3969373879991 0
70 1 1 1 1 -70.66022750542807 -89.12809383188022 0
71 1 1 1 1 -82.59756621251245 -57.14658164022114 0
72 1 1 1 1 78.52570287734906 75.06817384780635 0
73 1 1 1 1 -113.4046053887634 128.4968653314102 0
74 1 1 1 1 -34.94602412623983 -106.7987071180458 0
75 1 1 1 1 9.136881509031412 89.50369019348148 0
76 1 1 1 1 125.6405677401419 -51.37390217802441 0
77 1 1 1 1 124.2159741384854 115.2926072281446 0
78 1 1 1 1 -144.7522171158976 94.12438611413154 0
79 1 1 1 1 -62.95547031949951 30.96552597649634 0
80 1 1 1 1 52.20700851937636 -15.44476363922217 0
81 1 1 1 1 -76.9204304362182 157.0062407766195 0
82 1 1 1 1 -8.408789394764597 -84.96985710313982 0
83 1 1 1 1 13.1416347401624 143.4326357610018 0
84 1 1 1 1 -98.41199381837789 90.46179896139861 0
85 1 1 1 1 -123.1576083581345 -81.34827077117215 0
86 1 1 1 1 -95.1548203563294 16.10788989395985 0
87 1 1 1 1 -142.1848769622836 25.71748827433351 0
88 1 1 1 1 -149.9623551901171 -40.09591947127511 0
89 1 1 1 1 -52.00351129786782 69.25802331968475 0
90 1 1 1 1 108.5643252377242 -50.62420671900377 0
91 1 1 1 1 119.2050903795172 158.2657093704288 0
92 1 1 1 1 142.8035306136565 94.90576086730255 0
93 1 1 1 1 11.02787794429156 -137.5533488948012 0
94 1 1 1 1 58.81429349619549 153.8253632078229 0
95 1 1 1 1 66.82471949999138 145.6710811798133 0
96 1 1 1 1 12.62599374567105 -154.4567235908112 0
97 1 1 1 1 6.659548297165401 123.1118462329976 0
98 1 1 1 1 117.4226200112222 132.9219675591859 0
99 1 1 1 1 35.60322422817265 -136.9421389081887 0
100 1 1 1 1 -83.45881918427466 -131.6676504149528 0
101 1 1 1 1 126.105830920538 29.68756592378608 0
102 1 1 1 1 0.4229226704647999 38.93843080563951 0
103 1 1 1 1 52.43988191799679 -155.9172025642915 0
104 1 1 1 1 -78.90807824993718 -30.41021893037382 0
105 1 1 1 1 -113.3283920438964 146.9292966315522 0
106 1 1 1 1 132.5057697321008 -17.74545850158137 0
107 1 1 1 1 -124.3037539648622 24.07986525926015 0
108 1 1 1 1 -14.66153703514178 148.625690511508 0
109 1 1 1 1 -60.20788644415966 -147.1549693522166 0
110 1 1 1 1 -142.2205051684178 66.2389253733586 0
111 1 1 1 1 63.18892622261285 -93.37441027445695 0
112 1 1 1 1 87.05764125390178 88.04337906238627 0
113 1 1 1 1 -84.10091103424925 -155.9397958372865 0
114 1 1 1 1 88.76388201308299 8.206352724974636 0
115 1 1 1 1 60.02200485766701 -25.61532520605317 0
116 1 1 1 1 -68.29904678333463 123.5560586557638 0
117 1 1 1 1 -128.0912546863513 119.3408742244749 0
118 1 1 1 1 -66.6269757527418 51.65109662864367 0
119 1 1 1 1 -150.6367134589219 59.13264950111193 0
120 1 1 1 1 98.41272418357028 96.36828151385907 0
121 1 1 1 1 133.1271336996744 20.2876854439109 0
122 1 1 1 1 141.357636775925 -36.45995777620527 0
123 1 1 1 1 -112.8819494869961 -27.44133729156002 0
124 1 1 1 1 -99.3819742921459 -74.44832506236705 0
125 1 1 1 1 -158.0673146770589 141.8310540731509 0
126 1 1 1 1 -30.22022867848324 -68.80024120407953 0
127 1 1 1 1 -131.8994975953585 38.62670527672182 0
128 1 1 1 1 129.9147719707925 50.67771767733188 0
129 1 1 1 1 104.3167359513004 -32.16788777827713 0
130 1 1 1 1 -82.87934566510455 -86.36366981095947 0
131 1 1 1 1 35.17652572413977 -105.5022889738026 0
132 1 1 1 1 34.15050494976697 -68.21945292500018 0
133 1 1 1 1 -142.6377374930013 2.359871345775304 0
134 1 1 1 1 88.87560904438453 98.92807130610242 0
135 1 1 1 1 -16.58574090174685 57.38300634815073 0
136 1 1 1 1 -94.94762793765027 26.53520866251728 0
137 1 1 1 1 111.0797305898278 -135.7644775491391 0
138 1 1 1 1 -27.5126399153001 62.74149786043091 0
139 1 1 1 1 89.60243229138382 119.5886213331197 0
140 1 1 1 1 26.1807809823662 -10.36953751037618 0
141 1 1 1 1 -31.35465141841627 159.7056525101654 0
142 1 1 1 1 -156.7602414021694 -3.178978077394561 0
143 1 1 1 1 33.55658943270296 -57.13965665450253 0
144 1 1 1 1 -77.66066749738502 16.19031025610755 0
145 1 1 1 1 70.10477707482863 -137.8950437432032 0
146 1 1 1 1 50.57340911665779 -122.6060106230042 0
147 1 1 1 1 115.632179996264 80.88410228309863 0
148 1 1 1 1 24.17447573409851 -85.58200126234844 0
149 1 1 1 1 -153.4796691336827 19.1819519538262 0
150 1 1 1 1 148.3103109047927 46.15538961573185 0
151 1 1 1 1 159.0842556590021 -105.5858500447548 0
152 1 1 1 1 -70.00868571996196 83.82453941504866 0
153 1 1 1 1 -51.38616716072175 -17.88297047915052 0
154 1 1 1 1 57.00638972380108 0.4129726149755584 0
155 1 1 1 1 65.59474852335228 27.88514692987781 0
156 1 1 1 1 -86.00375989694697 -104.7011413939253 0
157 1 1 1 1 -19.25821229214236 120.1475530375956 0
158 1 1 1 1 -124.8196277596335 107.7887450647949 0
159 1 1 1 1 -33.98608562557587 77.42163303502139 0
160 1 1 1 1 -134.1394228277263 104.8355961928891 0
161 1 1 1 1 -107.971707470964 -63.32488119713591 0
162 1 1 1 1 -122.5418784837761 158.3548822075936 0
163 1 1 1 1 79.05129275203859 8.68315661000625 0
164 1 1 1 1 3.265942810469625 -99.68899618669795 0
165 1 1 1 1 -53.30563483012963 111.3522096212411 0
166 1 1 1 1 -50.67044626986731 -78.95431008471348 0
167 1 1 1 1 -28.02249963994908 -80.76922577022617 0
168 1 1 1 1 32.98526137332721 -34.03604047807281 0
169 1 1 1 1 87.21289531524718 67.60253722910153 0
170 1 1 1 1 -41.31127676925303 0.2854005570244738 0
171 1 1 1 1 71.86223075534969 117.5800877476987 0
172 1 1 1 1 -90.78526381832276 105.6398807892715 0
173 1 1 1 1 4.950977478301041 98.82617448201984 0
174 1 1 1 1 -154.9183752029569 -103.8203134411499 0
175 1 1 1 1 118.8818971848517 -64.75951012072702 0
176 1 1 1 1 -113.1855717201002 97.16286614187715 0
177 1 1 1 1 27.46516789664088 93.4339138190222 0
178 1 1 1 1 -133.0087599130734 -136.6451545663905 0
179 1 1 1 1 -138.2640890396358 -159.1753422382726 0
180 1 1 1 1 -84.37652498069632 138.5129275308686 0
181 1 1 1 1 158.121527904045 -11.4621309405814 0
182 1 1 1 1 -59.24232067963359 21.08613939224387 0
183 1 1 1 1 34.4206629379911 -3.492027730589228 0
184 1 1 1 1 30.81625664350543 8.689540063182108 0
185 1 1 1 1 61.98908231810279 -121.3818552940282 0
186 1 1 1 1 159.723932816095 -72.49506144179073 0
187 1 1 1 1 156.0004285212335 3.107661985690868 0
188 1 1 1 1 12.23147781708235 -103.7503854708886 0
189 1 1 1 1 -79.14658081215308 62.87131300281362 0
190 1 1 1 1 -34.99182270975243 109.8703588614081 0
191 1 1 1 1 -69.65525966054017 -114.8295931770999 0
192 1 1 1 1 -114.4792175401231 -96.50023359289716 0
193 1 1 1 1 124.6745377040726 -94.50869754592681 0
194 1 1 1 1 -88.93606113037902 4.880049385918653 0
195 1 1 1 1 -61.47314760958253 -125.3521670530332 0
196 1 1 1 1 -155.8186578329358 70.72194611193362 0
197 1 1 1 1 22.62253687488837 -146.3780185619185 0
198 1 1 1 1 -70.21944651076541 113.0125497332495 0
199 1 1 1 1 -83.97246339493154 -70.51562238261369 0
200 1 1 1 1 143.361572011071 113.429186527547 0
201 1 1 1 1 122.3821904976492 146.5886205959472 0
202 1 1 1 1 26.67259330890539 129.3584613152183 0
203 1 1 1 1 -12.02781814856604 -73.90725354799713 0
204 1 1 1 1 101.6325351526514 -137.5266987883007 0
205 1 1 1 1 -152.272424661744 -79.36325945215532 0
206 1 1 1 1 106.9866841751898 29.09323658522942 0
207 1 1 1 1 92.23881223831671 -23.94474482944349 0
208 1 1 1 1 84.73322475193373 -73.44794003809486 0
209 1 1 1 1 12.53230487289665 -12.83779877194945 0
210 1 1 1 1 -55.67335393209817 -5.222185148219154 0
211 1 1 1 1 -121.8021050686031 -59.45409326842704 0
212 1 1 1 1 -118.0158658249025 -69.73136897037915 0
213 1 1 1 1 -47.33880839238947 -52.09992116565225 0
214 1 1 1 1 55.65365648474671 -80.94946586301592 0
215 1 1 1 1 -96.11879050240361 116.7578102286595 0
216 1 1 1 1 -91.3178682993783 52.30657114107831 0
217 1 1 1 1 -66.15719494579942 -67.56879372122405 0
218 1 1 1 1 -36.80757945707978 -97.26202608974799 0
219 1 1 1 1 -56.40039911306613 150.4895572116442 0
220 1 1 1 1 -105.2646960237103 -0.5020809109556979 0
221 1 1 1 1 -117.5461765429493 10.42162048512523 0
222 1 1 1 1 -87.91602979942809 -47.81762161998941 0
223 1 1 1 1 110.5397536141193 -8.126117602660145 0
224 1 1 1 1 92.24558431776288 -156.3736412518721 0
225 1 1 1 1 -17.86731299573165 70.0962123124142 0
226 1 1 1 1 2.793212724972648 140.6732539850191 0
227 1 1 1 1 152.7834958755949 109.4122295960248 0
228 1 1 1 1 143.9658769876249 127.6521514641045 0
229 1 1 1 1 94.82764945421107 33.75865073452957 0
230 1 1 1 1 -130.0839880013553 -70.47045039274991 0
231 1 1 1 1 -151.1088669794236 -151.1712638610396 0
232 1 1 1 1 -65.17116132934578 -105.6859401584225 0
233 1 1 1 1 77.26242186887345 125.5782296461385 0
234 1 1 1 1 116.8261566821594 -100.6496018306014 0
235 1 1 1 1 7.360015752814263 7.628249135304799 0
236 1 1 1 1 147.911839788791 -123.094944329861 0
237 1 1 1 1 -156.2998461989565 101.4379680321546 0
238 1 1 1 1 -133.3081016570614 18.20886357457403 0
239 1 1 1 1 -49.17890849969058 37.39041815074475 0
240 1 1 1 1 -86.79268706202106 122.7079349345703 0
241 1 1 1 1 -137.6738229208147 -88.44622304801237 0
242 1 1 1 1 26.39550160201992 80.28418887990281 0
243 1 1 1 1 -97.13506273790796 77.54517108979877 0
244 1 1 1 1 -118.090459185658 -155.7430787039581 0
245 1 1 1 1 -108.1670761741028 -15.94506093934513 0
246 1 1 1 1 147.1213996682022 -95.76111660977581 0
247 1 1 1 1 27.82308876120533 52.91250403480603 0
248 1 1 1 1 106.8333012295552 -106.6460824845305 0
249 1 1 1 1 77.94616372394438 149.5423350433576 0
250 1 1 1 1 13.59706104804235 47.46860620808565 0
251 1 1 1 1 -107.7110023889031 -137.134733628181 0
252 1 1 1 1 85.74230266184955 -117.4070660569955 0
253 1 1 1 1 49.58423568812356 -137.9077614473485 0
254 1 1 1 1 61.31916386626853 11.26445737012119 0
255 1 1 1 1 53.37244965447712 115.64892399632 0
256 1 1 1 1 77.31337271378072 101.496532909128 0
257 1 1 1 1 -18.07566330425004 -152.2372456876344 0
258 1 1 1 1 -83.13565397709944 -10.29371722610017 0
259 1 1 1 1 -50.1537328694166 -111.5772320014871 0
260 1 1 1 1 -116.6256415132023 -8.854587945538469 0
261 1 1 1 1 -153.6025732145278 -90.15507316944635 0
262 1 1 1 1 -45.64715582109173 136.764606640504 0
263 1 1 1 1 135.565995998204 6.979089434383951 0
264 1 1 1 1 147.5666114826753 72.29255680965852 0
265 1 1 1 1 11.66655930802131 22.79266035838688 0
266 1 1 1 1 35.76957144149191 -46.2011958845238 0
267 1 1 1 1 -102.0800217125996 -48.80851105126712 0
268 1 1 1 1 10.53586057021005 -54.58292055875032 0
269 1 1 1 1 -33.50645603716086 9.651282417919447 0
270 1 1 1 1 20.52057046741072 154.8356986798095 0
271 1 1 1 1 146.3604958632619 -107.9738648675106 0
272 1 1 1 1 -57.74748255110403 78.64374016593843 0
273 1 1 1 1 25.71408694382288 106.1326807445651 0
274 1 1 1 1 103.9405251347084 -67.7431243497977 0
275 1 1 1 1 21.392076624184 -62.51630175647954 0
276 1 1 1 1 -141.1062837696215 44.76059701294216 0
277 1 1 1 1 -108.9913807090696 27.25013064856478 0
278 1 1 1 1 158.7276339064314 33.91869801345987 0
279 1 1 1 1 146.8480750439217 32.575557937535 0
280 1 1 1 1 134.4797468780496 -134.015757168617 0
281 1 1 1 1 118.7663674826248 -32.39705303809203 0
282 1 1 1 1 113.9884368959615 71.13067785043452 0
283 1 1 1 1 38.99529299277924 41.28070217444724 0
284 1 1 1 1 93.04465621923259 -38.06606514852568 0
285 1 1 1 1 0.574884626835626 50.73913847817289 0
286 1 1 1 1 2.907889278560305 -44.22253928901017 0
287 1 1 1 1 -96.05242240377045 -119.8007647907028 0
288 1 1 1 1 13.63454602623222 -32.66556638210844 0
289 1 1 1 1 94.34698285412679 -128.2957442074883 0
290 1 1 1 1 46.56257195484858 -6.803660801260662 0
291 1 1 1 1 -110.7594690818989 -40.86236154237437 0
292 1 1 1 1 23.9675593018701 118.4785810423986 0
293 1 1 1 1 8.630310075328396 108.7455839828871 0
294 1 1 1 1 146.8200132028489 139.2731344784974 0
295 1 1 1 1 140.6812557678618 -7.911795235606064 0
296 1 1 1 1 136.440022853025 -112.3572229369839 0
297 1 1 1 1 102.6880910530762 72.96125649032717 0
298 1 1 1 1 -50.24666678140342 -131.5562530515397 0
299 1 1 1 1 -156.3676719391083 -130.7053178792619 0
300 1 1 1 1 98.6776207308269 153.2124740703552 0
301 1 1 1 1 -5.863493250329668 -143.2626873961998 0
302 1 1 1 1 102.8809575933486 126.6488894276927 0
303 1 1 1 1 -144.4397643527373 155.966467253924 0
304 1 1 1 1 73.74447356164023 -79.40820433020839 0
305 1 1 1 1 114.441811065161 46.73492277399842 0
306 1 1 1 1 79.9805395287961 -45.09616065658324 0
307 1 1 1 1 118.0285274055468 -20.19844053949407 0
308 1 1 1 1 -50.41313638671969 6.23293141726225 0
309 1 1 1 1 -12.43939163373298 -57.96654894355046 0
310 1 1 1 1 -39.34699042137879 89.59311235978635 0
311 1 1 1 1 158.3324160260283 61.52074176129048 0
312 1 1 1 1 -99.29802039907062 142.0692547809818 0
313 1 1 1 1 -97.3851100410085 40.1366301504695 0
314 1 1 1 1 -157.3249372933654 33.95068109137273 0
315 1 1 1 1 -15.16786523359866 -27.34372112959863 0
316 1 1 1 1 -13.3915912434062 138.539064085954 0
317 1 1 1 1 63.05171974428507 -11.25768431204676 0
318 1 1 1 1 76.15727835338927 -7.612637724168451 0
319 1 1 1 1 -74.54607589295239 -148.4988817856788 0
320 1 1 1 1 134.2227082255715 132.2141344352839 0
321 1 1 1 1 42.67771419384519 -28.36860893878287 0
322 1 1 1 1 108.8048093192946 -151.4039980187473 0
323 1 1 1 1 112.5736075811732 -76.94172628163578 0
324 1 1 1 1 59.02440711703923 -59.03781397538862 0
325 1 1 1 1 -33.96744466576575 126.5692798027806 0
326 1 1 1 1 77.17117561053851 -99.48022486348424 0
327 1 1 1 1 150.3497082560099 -158.2314949039506 0
328 1 1 1 1 5.247596408869271 -74.56690124053182 0
329 1 1 1 1 127.0499465680709 39.64430882811541 0
330 1 1 1 1 71.06906096854769 -52.85317474802579 0
331 1 1 1 1 39.33509841995985 -154.4064688419703 0
332 1 1 1 1 103.0800376470727 -42.73840930282103 0
333 1 1 1 1 24.31058415856793 -41.08388620456744 0
334 1 1 1 1 97.88104995303144 -95.77553081905552 0
335 1 1 1 1 -6.265656331795356 -157.6945573893158 0
336 1 1 1 1 39.29094033065388 -79.45804940752801 0
337 1 1 1 1 -56.38935387619988 101.2943868079565 0
338 1 1 1 1 -28.41276267648289 -23.73428272542276 0
339 1 1 1 1 -47.70462699974789 -149.5091475741932 0
340 1 1 1 1 54.82881496976955 -45.50837876964366 0
341 1 1 1 1 29.46108323289411 -94.08129350525894 0
342 1 1 1 1 -126.0921237460352 -5.749714148330099 0
343 1 1 1 1 -119.6004902708109 -45.58984483822066 0
344 1 1 1 1 -38.88399277168354 -137.8359113766093 0
345 1 1 1 1 17.55741041731849 -92.76057728339654 0
346 1 1 1 1 11.20275194902402 -66.69998429734744 0
347 1 1 1 1 11.05377656675512 133.189066016365 0
348 1 1 1 1 69.10618029805613 2.617923516549695 0
349 1 1 1 1 -67.43503244944854 101.2104050648085 0
350 1 1 1 1 0.6576604847399494 150.4747186704263 0
351 1 1 1 1 92.6660580410871 -50.9077436306297 0
352 1 1 1 1 127.3364495261572 -125.5274423746909 0
353 1 1 1 1 72.58486314375591 -122.1265713931401 0
354 1 1 1 1 -66.91551658546608 -0.2456525759369299 0
355 1 1 1 1 -97.74181785171798 -131.5721451197626 0
356 1 1 1 1 -7.317121944481102 27.0600216182894 0
357 1 1 1 1 -85.69677763489651 -115.4516738261304 0
358 1 1 1 1 -15.59792094137893 109.2406866240747 0
359 1 1 1 1 0.5374144209242786 -21.34675317127059 0
360 1 1 1 1 102.653900710202 83.34699123780752 0
361 1 1 1 1 138.0818984358218 80.40085619161843 0
362 1 1 1 1 -150.6517887830571 81.96078494673037 0
363 1 1 1 1 150.9017547195289 -23.26462074935893 0
364 1 1 1 1 9.15404201488974 -117.9065894554655 0
365 1 1 1 1 145.9216074331877 -84.02842284249599 0
366 1 1 1 1 -59.9301165049086 -114.0571897802928 0
367 1 1 1 1 -113.9949123985697 111.0356813697168 0
368 1 1 1 1 -8.44682208324349 -133.2482161137255 0
369 1 1 1 1 48.13519307331615 -66.01723681692107 0
370 1 1 1 1 -69.07493387771677 -18.88903613308187 0
371 1 1 1 1 84.65225967754435 -129.186244459648 0
372 1 1 1 1 44.32449740069387 -89.63862587539836 0
373 1 1 1 1 -133.4354706206574 143.7044890327294 0
374 1 1 1 1 34.6759502912312 138.6341676359585 0
375 1 1 1 1 13.8693252910935 -2.140080708715743 0
376 1 1 1 1 -137.3702149723061 -19.27556778207546 0
377 1 1 1 1 117.9717521376511 -0.3830347399915581 0
378 1 1 1 1 -49.17355351627904 -36.92829378845261 0
379 1 1 1 1 -96.02133001266165 -158.2482526240238 0
380 1 1 1 1 -65.62655587452014 40.30057764949106 0
381 1 1 1 1 80.65065052820609 20.00426858451093 0
382 1 1 1 1 -79.18326107071714 4.971262237679184 0
383 1 1 1 1 141.0673389920422 159.5535930186095 0
384 1 1 1 1 -31.72840839122185 -154.6879501539838 0
385 1 1 1 1 -146.6610310692366 -62.37172337955286 0
386 1 1 1 1 72.01394812246878 35.77765903697227 0
387 1 1 1 1 85.24994467139652 31.11956917598513 0
388 1 1 1 1 74.67317345691939 88.15929482628138 0
389 1 1 1 1 70.24106511680813 -39.73831358695961 0
390 1 1 1 1 130.0405150185097 -39.26324240195449 0
391 1 1 1 1 90.02206906290556 78.57781838666955 0
392 1 1 1 1 -129.5507986183578 73.89702630168989 0
393 1 1 1 1 159.7516859077695 -55.6877419697602 0
394 1 1 1 1 -133.9442196511826 -40.80752052825775 0
395 1 1 1 1 66.78431645837463 70.32402788036933 0
396 1 1 1 1 -37.04369550928416 -76.71631878826401 0
397 1 1 1 1 107.4981015732781 -117.874083265254 0
398 1 1 1 1 -106.4990738875838 -101.9974374129129 0
399 1 1 1 1 -46.54398787598971 97.06001892279807 0
400 1 1 1 1 148.9024515490515 -133.4302761765061 0
401 1 1 1 1 -36.09603388004072 20.17066138579673 0
402 1 1 1 1 -152.4953660434651 -23.96120078346641 0
403 1 1 1 1 -34.97535450177871 149.7967320907139 0
404 1 1 1 1 -115.3957277449436 42.68548074096444 0
405 1 1 1 1 18.13272933834284 12.67058905374722 0
406 1 1 1 1 -147.6715575447253 -122.3682082914045 0
407 1 1 1 1 38.1038916024491 88.75771596820312 0
408 1 1 1 1 0.4731603197504057 14.73485211473687 0
409 1 1 1 1 -119.5671162452053 59.80694979649454 0
410 1 1 1 1 -119.5142284747026 -116.3666633618338 0
411 1 1 1 1 -127.5678578333789 86.00024237898936 0
412 1 1 1 1 -49.86950933837537 15.89693227067545 0
413 1 1 1 1 80.33598467459933 -157.1127248715363 0
414 1 1 1 1 121.5606953140121 101.6848455126807 0
415 1 1 1 1 -16.63866068666783 -15.7909028456987 0
416 1 1 1 1 -95.09112614958812 -65.77475186596419 0
417 1 1 1 1 65.4650754503966 -66.37735818322665 0
418 1 1 1 1 159.4589823286328 121.7272114731952 0
419 1 1 1 1 -154.2237793830837 -113.8530763894271 0
420 1 1 1 1 54.71835820096743 129.8278163222842 0
421 1 1 1 1 -128.0521978631988 -159.6989479173777 0
422 1 1 1 1 35.26629198510878 21.74912809256145 0
423 1 1 1 1 -119.9378682022289 136.180953910557 0
424 1 1 1 1 8.349964645013586 -84.21570258555462 0
425 1 1 1 1 -10.05806803164484 47.05001460721275 0
426 1 1 1 1 158.3653795356295 89.44532973294602 0
427 1 1 1 1 62.79099194627514 -145.0287336299198 0
428 1 1 1 1 154.2981094473672 158.1086665821416 0
429 1 1 1 1 -114.5499105417123 72.60512686065215 0
430 1 1 1 1 21.38444561493401 65.60268862515727 0
431 1 1 1 1 22.25147184756747 -101.7042199186276 0
432 1 1 1 1 57.73595514235555 -108.2310366620831 0
433 1 1 1 1 -49.62384205471511 -121.3437913026126 0
434 1 1 1 1 93.38663677464692 -83.81410639581354 0
435 1 1 1 1 -25.81803987852817 -39.75574093843122 0
436 1 1 1 1 35.33925213630201 62.35458106745628 0
437 1 1 1 1 -87.1502525094684 79.35040694290007 0
438 1 1 1 1 -70.524285193742 -36.53093792462222 0
439 1 1 1 1 -11.84407622271141 -107.7740991484316 0
440 1 1 1 1 0.5167024729946661 82.93586878899473 0
441 1 1 1 1 -55.30643238573018 -27.46276958830225 0
442 1 1 1 1 75.13867930180598 53.07726535594173 0
443 1 1 1 1 -34.7878068668831 -117.3290940805883 0
444 1 1 1 1 -21.36662979631512 -136.528318603903 0
445 1 1 1 1 -72.11250896402123 73.35752381267699 0
446 1 1 1 1 -55.41390741526797 137.184892446912 0
447 1 1 1 1 -138.0153481586061 -115.9297703294368 0
448 1 1 1 1 -40.26841567273397 44.77741175743341 0
449 1 1 1 1 -51.607211705875 127.9328993453473 0
450 1 1 1 1 137.6894898942225 61.77176503526769 0
451 1 1 1 1 -16.0823065165367 -122.2371470961685 0
452 1 1 1 1 129.7211581932181 159.7847126833941 0
453 1 1 1 1 -16.82587469809067 36.05763134398015 0
454 1 1 1 1 75.19198113667022 -23.04593828086553 0
455 1 1 1 1 -4.051334794034119 70.26782390952033 0
456 1 1 1 1 -143.9192928779074 138.576715845611 0
457 1 1 1 1 -95.46661624348729 -6.133437620102342 0
458 1 1 1 1 90.00736976027559 141.8214152780999 0
459 1 1 1 1 -12.33289460531466 -43.99971475602098 0
460 1 1 1 1 -118.063324523344 -144.3914052830835 0
461 1 1 1 1 -18.94942721048682 6.976022763051077 0
462 1 1 1 1 -27.33144584781337 100.2267330818941 0
463 1 1 1 1 86.35999901825275 -16.12301673678022 0
464 1 1 1 1 100.3117874201445 136.9525172161482 0
465 1 1 1 1 -30.51243660800412 -56.31879170547987 0
466 1 1 1 1 150.712435300704 -68.75043865076978 0
467 1 1 1 1 47.78647765473545 146.0831431131308 0
468 1 1 1 1 47.18075226354657 -109.9881172383244 0
469 1 1 1 1 -74.13344464002111 -77.11904129355744 0
470 1 1 1 1 59.04714776953188 80.0554849958655 0
471 1 1 1 1 -55.67928614299134 -60.32898758543698 0
472 1 1 1 1 156.4719593235892 13.70236833979101 0
473 1 1 1 1 55.37155096790411 69.19891587277397 0
474 1 1 1 1 35.21053902106021 31.58525168392458 0
475 1 1 1 1 75.63654528097032 159.0439121969861 0
476 1 1 1 1 158.1178144259874 -40.59618225966187 0
477 1 1 1 1 -33.7762115995528 -15.32611274060113 0
478 1 1 1 1 -132.4564576768711 -53.29736715667721 0
479 1 1 1 1 -10.96711979306761 77.56981013814379 0
480 1 1 1 1 -132.1707043661306 2.532298453337745 0
481 1 1 1 1 159.6014876518432 101.7875957211396 0
482 1 1 1 1 68.46056009153895 107.1901250219544 0
483 1 1 1 1 -23.75819111825155 135.700429458108 0
484 1 1 1 1 157.5423945956242 -120.8921084296406 0
485 1 1 1 1 29.58177014180276 -154.1530612282441 0
486 1 1 1 1 -92.40343334378345 -81.86743412008337 0
487 1 1 1 1 124.6280136557164 -75.14488232538352 0
488 1 1 1 1 13.87627978017665 76.62629924244436 0
489 1 1 1 1 123.840357941112 -135.6783017242637 0
490 1 1 1 1 -154.7541860580206 43.5698484639837 0
491 1 1 1 1 -141.8910866147002 -147.6576434714104 0
492 1 1 1 1 102.8085746790929 -19.09969174560212 0
493 1 1 1 1 123.860517742942 67.51492244892108 0
494 1 1 1 1 65.96870710883192 44.43949724921845 0
495 1 1 1 1 75.25174167369713 -109.3763055134551 0
496 1 1 1 1 38.71112978825414 158.2445861723171 0
497 1 1 1 1 -71.49910252705062 -56.40240725939528 0
498 1 1 1 1 -102.5630332360786 108.5738761716691 0
499 1 1 1 1 -5.478288782858328 -116.4933812253738 0
500 1 1 1 1 -143.3071866564151 -97.6536171659379 0
501 1 1 1 1 -81.90489600364845 113.580853925938 0
502 1 1 1 1 45.76790554778086 -51.12817981975101 0
503 1 1 1 1 91.19357721929472 108.5549781136126 0
504 1 1 1 1 -52.57475344942456 57.44472971134076 0
505 1 1 1 1 -10.71672393927298 12.85793105700392 0
506 1 1 1 1 -100.3864763840713 -30.23377903512372 0
507 1 1 1 1 -28.86047613204136 41.95476807483007 0
508 1 1 1 1 39.66024315425872 121.5193454113656 0
509 1 1 1 1 132.8849688458795 122.6501488877154 0
510 1 1 1 1 141.2997435181298 -141.2199081261512 0
511 1 1 1 1 109.5986323266279 -92.37246410968368 0
512 1 1 1 1 -2.525244688828366 114.5527576767812 0
513 1 1 1 1 133.6385189608104 -59.71995162564821 0
514 1 1 1 1 2.091473241532128 -148.9041416731642 0
515 1 1 1 1 98.69270148268549 -58.71388245505827 0
516 1 1 1 1 69.39508053003152 -158.5847409232341 0
517 1 1 1 1 84.96663897241606 -31.52005069320609 0
518 1 1 1 1 117.1456530467991 -85.82937624051617 0
519 1 1 1 1 -156.9048168553201 120.5873391712031 0
520 1 1 1 1 22.48384587482946 -20.4874885473273 0
521 1 1 1 1 20.89422957142318 33.0247475257089 0
522 1 1 1 1 -59.23219841740971 -135.7706299149284 0
523 1 1 1 1 -47.13781336412097 -92.25105826771035 0
524 1 1 1 1 44.38122508648473 107.0070652034915 0
525 1 1 1 1 -102.3835050078881 130.9899401807367 0
526 1 1 1 1 -64.92259334347085 62.94471826476263 0
527 1 1 1 1 -116.6206047640914 -129.2402989816832 0
528 1 1 1 1 -156.2286925316356 -54.53370028055907 0
529 1 1 1 1 157.1008702425248 -84.84146110631048 0
530 1 1 1 1 -141.2588726069927 77.6751361556006 0
531 1 1 1 1 101.3558333484487 9.837408966800496 0
532 1 1 1 1 23.36726750288901 -0.4946762146373658 0
533 1 1 1 1 149.4202007550213 21.99190442903716 0
534 1 1 1 1 -108.1593230509863 81.4106320606609 0
535 1 1 1 1 -97.64315170074528 -108.0220983325728 0
536 1 1 1 1 -91.06230537614533 131.4100587426313 0
537 1 1 1 1 66.44396798959724 59.14268883632158 0
538 1 1 1 1 112.4548877107156 120.2580558572951 0
539 1 1 1 1 -2.275258663020708 -33.98212237818889 0
540 1 1 1 1 -83.85210132986134 149.709089170926 0
541 1 1 1 1 16.13340913458455 -77.00512338113391 0
542 1 1 1 1 -105.3286638060146 13.20811191249948 0
543 1 1 1 1 42.05855356387306 -129.8030177143952 0
544 1 1 1 1 -84.45270075530462 38.21364290624155 0
545 1 1 1 1 -12.07201089746724 159.9930191661606 0
546 1 1 1 1 19.64401027574084 -112.5478002205523 0
547 1 1 1 1 -42.22627402708309 119.1163510510528 0
548 1 1 1 1 48.59573584899528 43.96168579039795 0
549 1 1 1 1 158.3415685462887 51.81654458496496 0
550 1 1 1 1 134.6369164228187 108.7906583173749 0
551 1 1 1 1 16.76755887408126 95.399809212322 0
552 1 1 1 1 -68.5683017166091 149.3431785341521 0
553 1 1 1 1 -43.06545359993339 29.45224902160263 0
554 1 1 1 1 95.98668616019063 -145.8508800293701 0
555 1 1 1 1 -4.170209398178059 -53.04078441091238 0
556 1 1 1 1 80.34465452839288 -58.73118227510709 0
557 1 1 1 1 125.1695898308233 -106.8782397685039 0
558 1 1 1 1 95.37512180658462 20.74943861804624 0
559 1 1 1 1 146.2066716849771 7.545057496546974 0
560 1 1 1 1 -28.37526198104624 -92.33285593819076 0
561 1 1 1 1 -36.97174440564626 57.07165044782769 0
562 1 1 1 1 118.9880653338481 -159.1454883344551 0
563 1 1 1 1 -73.16618137127293 -99.59197664945546 0
564 1 1 1 1 -62.98646355348365 157.7922772921468 0
565 1 1 1 1 -119.2042459315574 33.27264194505131 0
566 1 1 1 1 -13.90827938192945 87.60945491960084 0
567 1 1 1 1 159.5607625336492 -133.0398549030751 0
568 1 1 1 1 -159.1430054776095 -66.82199279711114 0
569 1 1 1 1 121.5381764018007 56.63053753372796 0
570 1 1 1 1 -156.2740232209659 131.7731144510918 0
571 1 1 1 1 -105.6817000433778 -115.9743628163767 0
572 1 1 1 1 156.8256032183308 131.9096623817017 0
573 1 1 1 1 57.81347277738914 -130.1971019411449 0
574 1 1 1 1 -138.0076433956178 123.1741927222755 0
575 1 1 1 1 2.257111875610406 -133.1249791415925 0
576 1 1 1 1 -57.69760828735085 88.76414361918521 0
577 1 1 1 1 -76.57729935189025 -45.29083820135284 0
578 1 1 1 1 -121.234742495344 -35.71594663365036 0
579 1 1 1 1 50.73551992086476 -36.39263386811462 0
580 1 1 1 1 -23.43969044195714 79.57020574935055 0
581 1 1 1 1 -151.5885765057725 8.369093034401885 0
582 1 1 1 1 -45.07618556081044 147.5653186138355 0
583 1 1 1 1 90.91518973858481 130.5927528200724 0
584 1 1 1 1 22.01494793732115 -123.7052508196341 0
585 1 1 1 1 -144.9110277236986 -7.536019051243443 0
586 1 1 1 1 -24.4671741269899 15.54954350747892 0
587 1 1 1 1 -140.2255614892966 -76.54039062435494 0
588 1 1 1 1 151.1563727114123 -147.940165362587 0
589 1 1 1 1 -158.8831467329322 -15.06051270010124 0
590 1 1 1 1 -42.10258194797909 -30.15299655340033 0