

2156 atoms
5319 bonds
1 atom types
1 bond types
-576 576 xlo xhi
-345.6 345.6 ylo yhi
-32 32 zlo zhi

Atoms #bpm/sphere

1 1 1 1 1 -269.4272207507328 -207.6025486047581 0
2 1 1 1 1 442.3921385096625 294.4677663084423 0
3 1 1 1 1 517.0143437659448 -297.1320491663738 0
4 1 1 1 1 -235.1820715853136 -31.01135852010702 0
5 1 1 1 1 -198.0096985315661 -112.595609277696 0
6 1 1 1 1 -438.7168554092722 293.3942365404552 0
7 1 1 1 1 -226.1104840490758 7.835710895929925 0
8 1 1 1 1 526.8555508105509 -122.9354193501396 0
9 1 1 1 1 -372.5320901989625 154.9589527429234 0
10 1 1 1 1 -12.36954370604754 345.5991527711481 0
11 1 1 1 1 428.4504312543593 -283.9606451485157 0
12 1 1 1 1 561.0485918560875 132.7218083386223 0
13 1 1 1 1 -96.24788515249784 -36.62790792107426 0
14 1 1 1 1 249.6648555216482 296.5584359620522 0
15 1 1 1 1 -402.4200295802357 -343.3064482485757 0
16 1 1 1 1 -305.9051948269695 -163.7117207491651 0
17 1 1 1 1 -148.3448606657256 -239.8237132876747 0
18 1 1 1 1 -304.8945951230112 276.4063719114644 0
19 1 1 1 1 449.4203541701102 -126.1777520113133 0
20 1 1 1 1 -328.0105657789939 -240.6274577110159 0
21 1 1 1 1 408.0366400027013 251.216197458619 0
22 1 1 1 1 -226.9064607021222 304.5082680718933 0
23 1 1 1 1 299.635665244331 79.7793396237431 0
24 1 1 1 1 -548.8573155191972 323.7878966361052 0
25 1 1 1 1 -499.0255937159013 -201.7410353127419 0
26 1 1 1 1 202.8227201519117 -135.3216400697557 0
27 1 1 1 1 -82.32074700541836 140.0630879706048 0
28 1 1 1 1 65.60130746234945 -252.3498994103437 0
29 1 1 1 1 160.6817023016714 79.32560663349814 0
30 1 1 1 1 392.6706465950565 -212.4298352848522 0
31 1 1 1 1 -94.49850644244926 -279.999240345168 0
32 1 1 1 1 -261.8299454641635 -85.18353028422858 0
33 1 1 1 1 -77.4303333613083 -249.5627911367764 0
34 1 1 1 1 134.9555908102846 261.1721510799845 0
35 1 1 1 1 -324.8856627541024 37.18136124305789 0
36 1 1 1 1 -329.1178355863848 -305.7236983174408 0
37 1 1 1 1 -543.0177352961538 -166.0433411965116 0
38 1 1 1 1 293.0502548678937 317.0149163706412 0
39 1 1 1 1 475.9182372670188 35.79227901879272 0
40 1 1 1 1 -473.5136119683705 4.806540514298241 0
41 1 1 1 1 20.52200447214473 -112.887787357312 0
42 1 1 1 1 334.1319791836486 -267.3258918091505 0
43 1 1 1 1 520.7084242823994 49.91068320365326 0
44 1 1 1 1 230.3658554366984 -50.18661915375665 0
45 1 1 1 1 172.0081431770111 218.1911282997714 0
46 1 1 1 1 -205.436594718318 -18.06235420746043 0
47 1 1 1 1 -355.7317582646872 204.9017050777504 0
48 1 1 1 1 -126.3903099961578 -192.6149533368556 0
49 1 1 1 1 -17.3209710300881 89.29402181750784 0
50 1 1 1 1 -36.09713503609619 344.2168392717458 0
51 1 1 1 1 -144.8376556402313 114.9137162173827 0
52 1 1 1 1 -381.1663333562215 -319.3351363491747 0
53 1 1 1 1 -539.8560784821854 -280.811868292786 0
54 1 1 1 1 -178.9133664089987 -60.22021514570847 0
55 1 1 1 1 37.76407391383236 -229.9140371472808 0
56 1 1 1 1 175.9779266784495 322.6171746002863 0
57 1 1 1 1 -125.3976400823323 40.3250413036676 0
58 1 1 1 1 535.9941903356729 61.77926855256174 0
59 1 1 1 1 -485.0753032767652 183.0653089209116 0
60 1 1 1 1 -5.803431684923272 -181.7940984101219 0
61 1 1 1 1 166.3984486049597 -179.7426167932688 0
62 1 1 1 1 168.5858193579092 -69.5780587122305 0
63 1 1 1 1 -14.76025279450096 168.8827003205006 0
64 1 1 1 1 496.7781189435187 -52.56134398540853 0
65 1 1 1 1 38.28235849708563 113.8067477579362 0
66 1 1 1 1 215.3145636621758 -197.632778356712 0
67 1 1 1 1 -265.40694923327 263.1989032090058 0
68 1 1 1 1 -228.6996436813761 -12.51766960472082 0
69 1 1 1 1 -118.7613953520312 125.8452570138664 0
70 1 1 1 1 28.67252964490181 -311.6706126897868 0
71 1 1 1 1 -124.6512525116106 297.6276954947816 0
72 1 1 1 1 337.9552819973255 324.741342090106 0
73 1 1 1 1 57.07647529125825 100.7153903261716 0
74 1 1 1 1 556.4804231503266 264.6393557368814 0
75 1 1 1 1 15.56989006628355 35.82416763827623 0
76 1 1 1 1 -242.7237188587751 -111.6905663547434 0
77 1 1 1 1 564.0813583154155 -343.6456776132095 0
78 1 1 1 1 -363.0765527405609 -5.128929706227201 0
79 1 1 1 1 38.54074291302714 -208.7496497558898 0
80 1 1 1 1 -447.5101316413417 116.379154587705 0
81 1 1 1 1 465.1363254870496 70.9617956207755 0
82 1 1 1 1 -536.0211597323322 -325.8556214322096 0
83 1 1 1 1 -345.0001819412057 -269.6304160574112 0
84 1 1 1 1 420.894112989361 -100.5092958599259 0
85 1 1 1 1 384.1386067835094 283.4727766495117 0
86 1 1 1 1 65.74399813958826 237.3578316975048 0
87 1 1 1 1 -254.3624305961931 -52.40910968337394 0
88 1 1 1 1 293.3091360398741 -342.6164263941525 0
89 1 1 1 1 552.0567791661173 204.6203540081948 0
90 1 1 1 1 469.4227213783013 204.9029180896035 0
91 1 1 1 1 135.5443478620757 -279.3220518586536 0
92 1 1 1 1 -313.4151838551641 296.3047323101535 0
93 1 1 1 1 -410.6802857416431 -104.4515463522361 0
94 1 1 1 1 426.8764991141894 -16.98757811999017 0
95 1 1 1 1 241.6342620885323 -173.9053892728319 0
96 1 1 1 1 8.064570787416415 -261.5944207662904 0
97 1 1 1 1 42.31396901275667 -182.6875036803156 0
98 1 1 1 1 365.6311574535525 291.8657231989038 0
99 1 1 1 1 -429.7937524060966 -109.7374192737525 0
100 1 1 1 1 83.90885091855935 -32.93941980320378 0
101 1 1 1 1 348.1570116563601 193.3223986355446 0
102 1 1 1 1 -417.0237932645691 263.2510601485118 0
103 1 1 1 1 405.8823633770804 -155.2588341950236 0
104 1 1 1 1 6.481414678590046 74.81460426754366 0
105 1 1 1 1 248.3681340015943 -300.3905926732199 0
106 1 1 1 1 -338.3369095810788 182.2955802484745 0
107 1 1 1 1 451.0018238320887 -22.96874730740747 0
108 1 1 1 1 -163.9898366669866 257.9596501017762 0
109 1 1 1 1 363.4125550067298 -76.43131994846063 0
110 1 1 1 1 -22.36307196819253 327.4127761758882 0
111 1 1 1 1 -521.0969735671912 76.12615258901715 0
112 1 1 1 1 8.677834817652911 -280.6548557677074 0
113 1 1 1 1 193.5430207381661 340.9953277910017 0
114 1 1 1 1 -473.7268180101721 -275.7846944220836 0
115 1 1 1 1 94.99431504119566 286.8742878712279 0
116 1 1 1 1 -365.0193787298339 38.927891074847 0
117 1 1 1 1 54.53418978418513 330.4616500132768 0
118 1 1 1 1 -561.4041336817072 -295.22942456121 0
119 1 1 1 1 333.7351376601175 217.1104324352548 0
120 1 1 1 1 443.1046511749319 -87.29776575155103 0
121 1 1 1 1 -128.3989514092849 -45.05658496462266 0
122 1 1 1 1 -75.50980932220273 157.0853139821327 0
123 1 1 1 1 -551.3391823989639 86.87129070606517 0
124 1 1 1 1 448.2530769917598 340.0318548198038 0
125 1 1 1 1 33.76703314411498 4.364154391145394 0
126 1 1 1 1 -498.9838578692649 329.4915328877532 0
127 1 1 1 1 -509.6188834616984 -338.9168073216277 0
128 1 1 1 1 -415.7563402890708 234.7459503640377 0
129 1 1 1 1 -390.9309678735999 -193.1844072781196 0
130 1 1 1 1 -111.6464884701477 68.62479167098672 0
131 1 1 1 1 112.4753062280708 50.98996202612848 0
132 1 1 1 1 378.0907058474595 -3.189905197966255 0
133 1 1 1 1 464.1748072815701 -80.39858733443812 0
134 1 1 1 1 -475.8255348225411 -120.1906436824822 0
135 1 1 1 1 221.8932784616218 306.8627174647636 0
136 1 1 1 1 259.033426503292 -185.3839789626134 0
137 1 1 1 1 347.515677513363 -71.56010142639998 0
138 1 1 1 1 -394.3549770069058 144.7896243567131 0
139 1 1 1 1 8.110719712609443 250.3557029184364 0
140 1 1 1 1 443.4810734135317 -326.0376663131883 0
141 1 1 1 1 336.1341510023373 293.5511106666486 0
142 1 1 1 1 -307.9441144265209 -113.4966492989352 0
143 1 1 1 1 409.6468760866623 -73.29471982919813 0
144 1 1 1 1 223.498796316051 252.8657641848505 0
145 1 1 1 1 -19.59213399208957 13.93166493400568 0
146 1 1 1 1 317.3839430785556 -250.3320676631115 0
147 1 1 1 1 -230.7082185406498 -295.1227560634767 0
148 1 1 1 1 50.66057629723619 -259.8194123698675 0
149 1 1 1 1 259.3631843346613 -3.799857623943353 0
150 1 1 1 1 56.04706005483995 53.81549174269954 0
151 1 1 1 1 -251.5118950214574 -127.9924903631495 0
152 1 1 1 1 -535.3556960731233 108.0338440097011 0
153 1 1 1 1 446.4950707216154 18.56207705293905 0
154 1 1 1 1 -492.6370460440965 304.9725729285996 0
155 1 1 1 1 -86.32120234196709 284.3939635811011 0
156 1 1 1 1 265.3681748247287 -265.6509613987354 0
157 1 1 1 1 432.4435709358028 -247.1439162222661 0
158 1 1 1 1 -103.8273868580923 255.4333866905727 0
159 1 1 1 1 -292.7480863157366 314.4608531063611 0
160 1 1 1 1 144.2063143686646 -10.52630255280742 0
161 1 1 1 1 521.3520111181414 330.0692907423089 0
162 1 1 1 1 -346.3748225374524 246.2577807818228 0
163 1 1 1 1 -269.2377824857567 -172.0621618210806 0
164 1 1 1 1 -173.7279718250246 -126.6311936191087 0
165 1 1 1 1 124.2957261574873 1.691426239267457 0
166 1 1 1 1 573.8106254911721 -91.09063358391313 0
167 1 1 1 1 120.1030992498102 -169.1779852219655 0
168 1 1 1 1 -301.525134773676 -204.5028072653553 0
169 1 1 1 1 219.9021298691699 43.25574330987734 0
170 1 1 1 1 353.7754861257647 57.34158971514917 0
171 1 1 1 1 -448.9250103166145 14.31134747473629 0
172 1 1 1 1 -193.0477306369766 140.712600951771 0
173 1 1 1 1 288.998984708339 9.355537580733881 0
174 1 1 1 1 -304.164959072606 -179.106639343028 0
175 1 1 1 1 -135.1199746725934 173.1467732842077 0
176 1 1 1 1 395.4415737204711 157.2581499485146 0
177 1 1 1 1 -302.5471497442748 -273.487210604636 0
178 1 1 1 1 -85.55787337179191 325.6652303720676 0
179 1 1 1 1 -527.226490859014 -60.35552651547224 0
180 1 1 1 1 357.8244223743645 -176.6888922534465 0
181 1 1 1 1 351.1226965878507 161.4205792916146 0
182 1 1 1 1 402.0271496523827 39.12674965137936 0
183 1 1 1 1 -533.4966602570818 195.5165829468972 0
184 1 1 1 1 471.4326308503744 341.5605698699197 0
185 1 1 1 1 134.4108772382707 -212.7538904189667 0
186 1 1 1 1 -170.5317384289731 -263.7786082345992 0
187 1 1 1 1 473.5695706495474 323.4617770919666 0
188 1 1 1 1 -72.35538683544728 -97.09910952816404 0
189 1 1 1 1 -246.5162996825003 32.85870059191152 0
190 1 1 1 1 224.0518391344338 -23.89724934246092 0
191 1 1 1 1 225.3395649738276 -179.2284868621832 0
192 1 1 1 1 -216.7577563178458 244.339996016462 0
193 1 1 1 1 476.8061995054192 -286.0584148254591 0
194 1 1 1 1 -298.8171839965684 -234.2084157356946 0
195 1 1 1 1 30.91570299316809 -69.04227656838994 0
196 1 1 1 1 227.263342586098 -212.9253195879223 0
197 1 1 1 1 125.7890766138729 17.46745598736202 0
198 1 1 1 1 -395.9449777366007 5.809644429803029 0
199 1 1 1 1 131.0435951005722 -30.41496275177301 0
200 1 1 1 1 -560.4488101044575 130.3042716952038 0
201 1 1 1 1 -59.55873721214785 -158.0513561243085 0
202 1 1 1 1 456.594278427158 220.7755247413369 0
203 1 1 1 1 -328.8719317245561 231.2381919935654 0
204 1 1 1 1 390.8263756426936 261.8400717622476 0
205 1 1 1 1 -507.8219194868093 270.9419504015841 0
206 1 1 1 1 -157.2089043651035 207.9341990485356 0
207 1 1 1 1 177.7670226020681 -19.83252820110893 0
208 1 1 1 1 -529.2726596842332 163.6840640110851 0
209 1 1 1 1 -536.0120095286056 -19.1238763958057 0
210 1 1 1 1 203.8707593405796 97.5313112556295 0
211 1 1 1 1 225.1328570113714 174.4953418773106 0
212 1 1 1 1 456.1698172348839 -191.8886530642584 0
213 1 1 1 1 -376.5179094356956 81.93331235355628 0
214 1 1 1 1 404.2530536569075 64.16553849851016 0
215 1 1 1 1 -428.0256332689789 -214.4105902296936 0
216 1 1 1 1 -310.5016185668208 48.27001575220316 0
217 1 1 1 1 146.4659682124331 -309.1360156492551 0
218 1 1 1 1 -248.3586031481959 344.3723288683189 0
219 1 1 1 1 184.6537507132981 83.37318162532239 0
220 1 1 1 1 98.33840687387702 117.6893717102733 0
221 1 1 1 1 -403.3588015391081 -88.36889389322819 0
222 1 1 1 1 164.5756667810462 1.343884465721203 0
223 1 1 1 1 303.3896291640475 -310.5273678374558 0
224 1 1 1 1 34.39569693499798 -106.1654318913487 0
225 1 1 1 1 346.8428748270415 -304.8215138852538 0
226 1 1 1 1 -79.50201673987877 225.7957763494412 0
227 1 1 1 1 -420.9190012663748 -177.3718510185801 0
228 1 1 1 1 66.64444049593786 -281.1974850935783 0
229 1 1 1 1 -447.8479634296068 255.3389640698171 0
230 1 1 1 1 -498.4119304361173 -285.3102019047799 0
231 1 1 1 1 547.0419804547197 298.5611503595176 0
232 1 1 1 1 171.6040976877303 162.4570762822367 0
233 1 1 1 1 25.95991320593812 95.92535441417795 0
234 1 1 1 1 411.4819718001722 117.7962275874263 0
235 1 1 1 1 -356.7994897533956 -330.4998518384684 0
236 1 1 1 1 -526.8398849787025 57.74597955884779 0
237 1 1 1 1 34.84814308430332 64.22627786625908 0
238 1 1 1 1 -10.46049965388747 -45.90413410461488 0
239 1 1 1 1 77.92243287217426 -295.5406910411611 0
240 1 1 1 1 131.2477636982465 -239.6029910991144 0
241 1 1 1 1 -573.4295329825835 326.5594020257486 0
242 1 1 1 1 455.4310447321154 45.89088656534405 0
243 1 1 1 1 -225.5158283510898 -312.4275115725953 0
244 1 1 1 1 -451.7538060194693 -152.6364743242792 0
245 1 1 1 1 52.06001719765845 -84.57016871044689 0
246 1 1 1 1 0.8130542481898374 290.5135171487308 0
247 1 1 1 1 106.6138185187531 -144.2336982323851 0
248 1 1 1 1 195.5477601415994 66.78103466163012 0
249 1 1 1 1 -561.7250326072408 162.8831688786761 0
250 1 1 1 1 -48.60338141265829 -312.6694486448125 0
251 1 1 1 1 -322.8616656267178 -151.2737309415516 0
252 1 1 1 1 323.838606521315 101.817001627419 0
253 1 1 1 1 -353.259317411719 84.07044332649785 0
254 1 1 1 1 -209.5360631780755 -318.7424465487233 0
255 1 1 1 1 544.6151709636233 118.5955022620948 0
256 1 1 1 1 -419.3314684474777 9.873397230076808 0
257 1 1 1 1 124.8620609035393 66.54039357973852 0
258 1 1 1 1 278.639720686032 112.6052467863363 0
259 1 1 1 1 -83.20349066664512 7.847336619678663 0
260 1 1 1 1 569.4458539637477 254.8226741836484 0
261 1 1 1 1 241.3873615384977 -63.33818085453504 0
262 1 1 1 1 142.954888633807 100.8819360519355 0
263 1 1 1 1 532.2794720008391 -174.4605050324082 0
264 1 1 1 1 -564.0126181450173 -159.9921387969186 0
265 1 1 1 1 -213.6616204467556 75.32619410346206 0
266 1 1 1 1 339.6001331796211 25.12157957494028 0
267 1 1 1 1 378.786275845554 -292.9096736055626 0
268 1 1 1 1 76.44197534504956 -325.9234277179814 0
269 1 1 1 1 16.87519732603669 230.631159590818 0
270 1 1 1 1 483.5699611592711 -304.919093294539 0
271 1 1 1 1 301.1426790833546 63.83902193124623 0
272 1 1 1 1 -373.0404889400686 -237.6266413579277 0
273 1 1 1 1 -262.5733397802943 159.7818597215131 0
274 1 1 1 1 -208.9368708679359 46.91058914299333 0
275 1 1 1 1 -455.5339718985122 -181.8594414318894 0
276 1 1 1 1 222.7836539688401 -64.21369911569991 0
277 1 1 1 1 -274.1994709256186 -53.14250963049194 0
278 1 1 1 1 -561.1333879018579 -246.6412032405967 0
279 1 1 1 1 43.31355431895218 -58.37249081179266 0
280 1 1 1 1 -538.4249189377269 178.7840112493994 0
281 1 1 1 1 -517.5275432346184 221.0392772079582 0
282 1 1 1 1 160.196379089086 304.6741069525679 0
283 1 1 1 1 514.089994872585 -176.3847807681796 0
284 1 1 1 1 417.2465613769837 24.48109388508551 0
285 1 1 1 1 274.3054656473422 176.7588928831186 0
286 1 1 1 1 -388.8458960094702 -231.3318280631813 0
287 1 1 1 1 -265.3796685296827 295.8419691025628 0
288 1 1 1 1 254.9151482757976 33.88385478780683 0
289 1 1 1 1 -147.341356026225 279.2252877145241 0
290 1 1 1 1 366.028774116419 -198.6346556345051 0
291 1 1 1 1 -319.4165335643671 -286.2844896655296 0
292 1 1 1 1 484.3283507363078 -257.8265161752436 0
293 1 1 1 1 166.1613233796668 238.2849798649535 0
294 1 1 1 1 207.168913537191 -174.3753021600724 0
295 1 1 1 1 -162.2749334281472 -296.1539906559204 0
296 1 1 1 1 -356.7159247310195 109.314776526335 0
297 1 1 1 1 44.49986604894866 149.870648835631 0
298 1 1 1 1 -435.8934910378666 -287.1749351152847 0
299 1 1 1 1 149.090991957697 40.46972449132946 0
300 1 1 1 1 98.24505499643493 329.1623324116981 0
301 1 1 1 1 561.3719721197482 70.36712158990304 0
302 1 1 1 1 -185.6976448207887 16.96845896737264 0
303 1 1 1 1 529.3697778314071 202.3532282315696 0
304 1 1 1 1 164.2589888908813 -101.9102149643232 0
305 1 1 1 1 -215.2724813920929 -115.3938120645682 0
306 1 1 1 1 -556.8818383135152 177.9499404028668 0
307 1 1 1 1 -575.7380587431484 193.2830544985804 0
308 1 1 1 1 417.9788728985789 -296.489493063922 0
309 1 1 1 1 203.6818535978962 137.6523807506116 0
310 1 1 1 1 44.14874506519163 -159.7211382151859 0
311 1 1 1 1 -54.11878426765134 121.3366867588904 0
312 1 1 1 1 210.3072361726592 -117.7991836436097 0
313 1 1 1 1 498.833621467469 -183.897618626308 0
314 1 1 1 1 513.0467373838486 158.4308820392844 0
315 1 1 1 1 -89.20987914218959 -174.9731124060723 0
316 1 1 1 1 331.8622783305844 -178.9332464701921 0
317 1 1 1 1 -313.296327445775 319.0881363247487 0
318 1 1 1 1 345.4720296275944 281.0744262090736 0
319 1 1 1 1 365.9044764075077 -306.1857828604648 0
320 1 1 1 1 533.8509591884249 -280.1101792868128 0
321 1 1 1 1 -181.8607808216055 -10.08248905156616 0
322 1 1 1 1 -115.4422596721082 -79.82161398251142 0
323 1 1 1 1 -268.4714520580462 144.5660648788551 0
324 1 1 1 1 159.3408781765519 58.14769880823911 0
325 1 1 1 1 -294.1911809593095 -97.2033225801341 0
326 1 1 1 1 507.0415745982466 34.2600217372215 0
327 1 1 1 1 463.857888131554 286.6459678050404 0
328 1 1 1 1 -175.5464637062854 66.88376131315863 0
329 1 1 1 1 -407.5147431097211 -21.88456433007473 0
330 1 1 1 1 385.135054481384 42.56676079902363 0
331 1 1 1 1 69.60835770909635 77.5961975288984 0
332 1 1 1 1 144.757719888684 140.6762943506692 0
333 1 1 1 1 -151.6042504362267 -322.1642063661909 0
334 1 1 1 1 250.1932951264302 -331.9836352268708 0
335 1 1 1 1 -417.5926533365753 88.15546966437915 0
336 1 1 1 1 105.6747475218069 -317.352719187981 0
337 1 1 1 1 119.1308481878635 -80.23461761899648 0
338 1 1 1 1 -311.7092014617318 137.1200801351858 0
339 1 1 1 1 -169.4381904726256 243.4787181369293 0
340 1 1 1 1 196.0559440949483 200.4257838552395 0
341 1 1 1 1 -26.1349710987065 -73.94991566835361 0
342 1 1 1 1 -111.2273152344255 -24.33358859005443 0
343 1 1 1 1 262.2054797375357 -241.8251246739441 0
344 1 1 1 1 383.1564112259032 -118.4211060664844 0
345 1 1 1 1 -531.8922431880592 -197.7770521335932 0
346 1 1 1 1 164.1867390375608 113.8900684775878 0
347 1 1 1 1 310.4371173719158 132.8102036438272 0
348 1 1 1 1 80.95990923843465 94.34245985457174 0
349 1 1 1 1 517.0010004214497 -249.2549776316422 0
350 1 1 1 1 195.1969844800014 175.159103700316 0
351 1 1 1 1 -342.4058636929535 4.617684896786932 0
352 1 1 1 1 -559.9384450983839 -183.2641213956889 0
353 1 1 1 1 -420.7926424143443 175.0127841756064 0
354 1 1 1 1 -196.1245562155455 -194.4185711659623 0
355 1 1 1 1 431.7403451216844 138.9855641086657 0
356 1 1 1 1 -467.0307772907021 45.63924584122169 0
357 1 1 1 1 275.9028748991219 254.8265354601516 0
358 1 1 1 1 421.531054775042 -164.8904836776915 0
359 1 1 1 1 -409.5378719404671 117.2045970653726 0
360 1 1 1 1 -105.7886239992679 -321.1319210048957 0
361 1 1 1 1 251.0679641192734 100.9207633493406 0
362 1 1 1 1 -165.3363190984051 -337.2503939995764 0
363 1 1 1 1 -56.71400453752895 -269.468680244417 0
364 1 1 1 1 261.9425647428372 -119.1826515546283 0
365 1 1 1 1 328.3210274871715 120.4902854676935 0
366 1 1 1 1 -192.7584656586093 224.5182220375094 0
367 1 1 1 1 -392.9504009649206 -304.0967329898757 0
368 1 1 1 1 441.4315001948424 -219.0100125082221 0
369 1 1 1 1 -210.6444721747563 9.941631412026618 0
370 1 1 1 1 19.64758475110139 -207.1476432295411 0
371 1 1 1 1 -465.7869566965991 27.34467168551287 0
372 1 1 1 1 446.0627362449686 -41.3234638038427 0
373 1 1 1 1 1.258846613488095 24.52939742251902 0
374 1 1 1 1 266.1822261201737 63.13964608244178 0
375 1 1 1 1 -139.6404734195805 -259.4898814804578 0
376 1 1 1 1 136.8979219442139 -72.02846442433474 0
377 1 1 1 1 -495.029009172893 110.7792636760725 0
378 1 1 1 1 563.8520111939919 170.2579480459625 0
379 1 1 1 1 -448.6620092286116 -109.3616631665738 0
380 1 1 1 1 454.7190848264261 -287.7673760434286 0
381 1 1 1 1 -259.3317393833392 -34.3980627104379 0
382 1 1 1 1 292.9087063131332 285.8765972984157 0
383 1 1 1 1 301.6091914605069 253.9090945310244 0
384 1 1 1 1 -199.3387215856659 106.4165254160988 0
385 1 1 1 1 -507.2708971898483 -77.84387477941709 0
386 1 1 1 1 -241.3028502241854 144.0724457756894 0
387 1 1 1 1 485.5385776725907 15.43156784550847 0
388 1 1 1 1 -13.92928499903728 -221.9733083478652 0
389 1 1 1 1 175.4201725530408 -261.5711034770278 0
390 1 1 1 1 -346.3302063456448 327.4848140354338 0
391 1 1 1 1 104.1479282073788 92.30964657508012 0
392 1 1 1 1 -316.3236350243598 257.7255380811616 0
393 1 1 1 1 -158.8982039462682 -202.5725367111233 0
394 1 1 1 1 430.4175868751161 168.1094892072051 0
395 1 1 1 1 -433.3485277595663 -60.07829063088966 0
396 1 1 1 1 299.9602463845548 -150.8208802315607 0
397 1 1 1 1 190.6479480927758 -90.62402409088564 0
398 1 1 1 1 119.6256198093805 -219.0202940740495 0
399 1 1 1 1 262.3187605475096 -168.2114950625714 0
400 1 1 1 1 -368.460962249605 -42.45005354969968 0
401 1 1 1 1 315.8296770621794 341.794771733483 0
402 1 1 1 1 179.4649808300754 -151.2189796229188 0
403 1 1 1 1 -376.658643458983 238.004017888305 0
404 1 1 1 1 42.24485625971902 312.7848162792338 0
405 1 1 1 1 357.8921483432016 80.53452557466117 0
406 1 1 1 1 499.4317608052076 -159.4352508948789 0
407 1 1 1 1 199.6505161845151 -65.95616206577533 0
408 1 1 1 1 400.9404717907764 -264.1431962154451 0
409 1 1 1 1 -109.1998638356925 -156.4984253647299 0
410 1 1 1 1 -67.88896848516451 -10.11807277177172 0
411 1 1 1 1 -259.638477756782 96.84363122808546 0
412 1 1 1 1 -77.36008723604056 -310.0383450680357 0
413 1 1 1 1 566.0397549344649 -122.9052590753757 0
414 1 1 1 1 -181.0047986517499 -218.1906461763112 0
415 1 1 1 1 228.9526151533788 104.7474873560515 0
416 1 1 1 1 -224.8561649838756 -95.97232089727878 0
417 1 1 1 1 -193.4133856033247 -246.6108787085091 0
418 1 1 1 1 -243.1968233072623 174.7310482046309 0
419 1 1 1 1 -224.8559082644055 116.9509960668974 0
420 1 1 1 1 175.6301689521959 14.20161664640573 0
421 1 1 1 1 551.9381083572122 -277.3624319258212 0
422 1 1 1 1 120.8233060361267 237.1172976945668 0
423 1 1 1 1 -138.7614523796943 91.868313098407 0
424 1 1 1 1 -319.721708880773 -28.80772970337503 0
425 1 1 1 1 -416.9301787833012 210.6062783124738 0
426 1 1 1 1 364.1484717436748 -24.29224920059751 0
427 1 1 1 1 434.2823951441375 241.5154256892666 0
428 1 1 1 1 354.0324954620191 -99.73429501665815 0
429 1 1 1 1 395.1752592553072 -136.0259314070431 0
430 1 1 1 1 69.94996166689225 214.8116386354152 0
431 1 1 1 1 -416.3249518216065 -129.0592024820094 0
432 1 1 1 1 -132.2487212515771 4.286207517008916 0
433 1 1 1 1 -341.401097621646 -184.9030439257226 0
434 1 1 1 1 38.9810265362914 -334.7020311076207 0
435 1 1 1 1 530.4124168647498 293.2411364745822 0
436 1 1 1 1 89.013047645385 164.7376669710221 0
437 1 1 1 1 562.603811009922 -185.3297207062884 0
438 1 1 1 1 216.5477552703483 -79.80727320305242 0
439 1 1 1 1 -285.8666664908171 -310.5484565927161 0
440 1 1 1 1 539.2436909764791 -297.570994711875 0
441 1 1 1 1 -335.1115420893111 -290.7655943010213 0
442 1 1 1 1 74.55124125997736 321.1810285081473 0
443 1 1 1 1 11.32615550716419 -65.30456681604183 0
444 1 1 1 1 427.6856760389592 -204.7690465845157 0
445 1 1 1 1 -453.2769129044544 77.43501553910329 0
446 1 1 1 1 -398.5898384055131 37.02710444218051 0
447 1 1 1 1 -193.1848399735196 166.7698686130635 0
448 1 1 1 1 491.4320493098371 157.9145436393657 0
449 1 1 1 1 -446.1944847880774 55.22953562866633 0
450 1 1 1 1 -194.3174358147222 -316.5547547761602 0
451 1 1 1 1 -502.3615498049546 89.25968731953172 0
452 1 1 1 1 -484.0803709928476 323.8667535759282 0
453 1 1 1 1 -441.8210897756252 340.6769727657459 0
454 1 1 1 1 275.5092682310296 -53.01319527913424 0
455 1 1 1 1 -498.8421442801864 175.1547863235763 0
456 1 1 1 1 73.45787206170972 149.6036205622375 0
457 1 1 1 1 -494.0286425338563 -236.4138454786299 0
458 1 1 1 1 -67.15929062445939 111.6943796220398 0
459 1 1 1 1 97.0222151891373 312.9177298662129 0
460 1 1 1 1 251.2165102512861 344.9549367702662 0
461 1 1 1 1 296.8389625814681 -15.24305178438872 0
462 1 1 1 1 174.4698939585327 66.42778543238283 0
463 1 1 1 1 -245.0872290928404 -90.31068072065146 0
464 1 1 1 1 107.4548207153306 -252.8687521473017 0
465 1 1 1 1 -303.403637925574 -252.3009756708536 0
466 1 1 1 1 374.0567766140326 -213.1947421764339 0
467 1 1 1 1 25.77598148100888 136.8562991338822 0
468 1 1 1 1 -117.5555609186635 -139.9570865458787 0
469 1 1 1 1 501.2341920447925 48.7626304721538 0
470 1 1 1 1 -147.171157506471 -173.5787347227758 0
471 1 1 1 1 -42.76244076558223 46.89462379535908 0
472 1 1 1 1 322.7173018134861 -25.14448580112471 0
473 1 1 1 1 -549.2088576475297 116.1109434305566 0
474 1 1 1 1 140.2616220827901 278.2585323884479 0
475 1 1 1 1 -8.261282720913096 -253.5848560019008 0
476 1 1 1 1 -271.6518811120746 -295.3696574454613 0
477 1 1 1 1 318.9726899812633 -331.3707772724186 0
478 1 1 1 1 504.8770740138455 -121.9425674786989 0
479 1 1 1 1 349.9203647808849 -191.2493414971085 0
480 1 1 1 1 -308.2705111608457 -140.766789848492 0
481 1 1 1 1 -257.3986792228789 -331.8820374135448 0
482 1 1 1 1 158.9014192137211 -326.8609294806886 0
483 1 1 1 1 281.5611592617301 -144.7817190623211 0
484 1 1 1 1 -137.9181075235376 22.02570796745208 0
485 1 1 1 1 -149.1316706212071 251.0731543750475 0
486 1 1 1 1 392.484273696247 -79.98411898050414 0
487 1 1 1 1 -562.0061603120173 274.0651083735988 0
488 1 1 1 1 -513.5921413701743 14.07383503364781 0
489 1 1 1 1 132.1208542870751 215.4847247260265 0
490 1 1 1 1 -49.42052942176133 217.9134843201518 0
491 1 1 1 1 142.8932738885282 340.3614888213474 0
492 1 1 1 1 74.77399684730445 174.0018138202881 0
493 1 1 1 1 132.3333465744595 323.6209689892985 0
494 1 1 1 1 -572.3471216011849 247.0580798186694 0
495 1 1 1 1 -40.57489250416102 95.12304673570353 0
496 1 1 1 1 -555.6671521361394 234.9361461446786 0
497 1 1 1 1 -220.7823859181027 -149.1269991264207 0
498 1 1 1 1 -36.25408201022074 -59.56455930412145 0
499 1 1 1 1 411.2069397445792 275.4484175319558 0
500 1 1 1 1 -337.6688997151441 -342.980310904768 0
501 1 1 1 1 14.03365036815467 -19.02361209576388 0
502 1 1 1 1 123.6867091097809 -184.62269021993 0
503 1 1 1 1 -525.5678151762891 -115.6970476525361 0
504 1 1 1 1 -276.1904145651778 333.6532267714603 0
505 1 1 1 1 -125.8877988893525 -271.5712980952725 0
506 1 1 1 1 312.8712534551704 8.073529040729 0
507 1 1 1 1 -575.5288859936263 -94.32921174479917 0
508 1 1 1 1 401.4870240909191 -40.34335795932616 0
509 1 1 1 1 24.0653726177442 -251.0107817364605 0
510 1 1 1 1 118.5650492263916 119.3368398460235 0
511 1 1 1 1 -51.23695153209456 0.7375841419572226 0
512 1 1 1 1 126.2266019144976 -254.4576881665356 0
513 1 1 1 1 -38.21532523031829 -122.8817916095971 0
514 1 1 1 1 -433.4263055208461 -147.4148428510693 0
515 1 1 1 1 -479.5226224215708 -328.8219313268421 0
516 1 1 1 1 -474.1942486119558 97.49137696004928 0
517 1 1 1 1 -351.48064915235 -42.39003570138889 0
518 1 1 1 1 98.46765345974673 24.68341675757897 0
519 1 1 1 1 -61.76964178834815 319.0245133264446 0
520 1 1 1 1 -314.7687582721161 -1.966306487901557 0
521 1 1 1 1 -57.41248894699265 -56.24618161084405 0
522 1 1 1 1 -278.5564783737971 -148.4924874424154 0
523 1 1 1 1 16.91775638485387 -186.3404917597181 0
524 1 1 1 1 -120.4919092852048 327.7690993856726 0
525 1 1 1 1 -164.9005855583935 -19.81760214821766 0
526 1 1 1 1 -278.4051337643526 -92.34268292698094 0
527 1 1 1 1 -564.9032556384457 -141.2336657454303 0
528 1 1 1 1 522.666418457586 -229.0887006883672 0
529 1 1 1 1 -42.68712510252362 -245.7103440834495 0
530 1 1 1 1 -335.5399089207392 -169.6864852140353 0
531 1 1 1 1 573.9599440719733 -305.5294328090154 0
532 1 1 1 1 -179.6339844174808 133.0704073765006 0
533 1 1 1 1 -54.00412994642056 193.5289719946999 0
534 1 1 1 1 -311.1643582232307 -312.7363479211019 0
535 1 1 1 1 -89.67129376939775 -124.666384793939 0
536 1 1 1 1 -487.1912350025891 -36.9499185840275 0
537 1 1 1 1 -278.1507341200131 -338.4521523391585 0
538 1 1 1 1 519.9558086526297 224.5538392006491 0
539 1 1 1 1 83.69806270769705 -111.488018371576 0
540 1 1 1 1 562.6199679162943 322.10423406293 0
541 1 1 1 1 243.1497216975702 46.4588187519239 0
542 1 1 1 1 -446.1188212378422 -304.5282166467637 0
543 1 1 1 1 -111.6707280957886 -278.5640160646631 0
544 1 1 1 1 512.6384932881776 -264.8066110009576 0
545 1 1 1 1 203.159724803439 293.0573431355683 0
546 1 1 1 1 -319.3918384101445 187.6923525213873 0
547 1 1 1 1 -416.9072814961923 26.89195634577527 0
548 1 1 1 1 -201.3512507323893 127.5157083817295 0
549 1 1 1 1 89.54013969175048 59.23722085869559 0
550 1 1 1 1 194.599310348469 -329.3785386200811 0
551 1 1 1 1 -393.4432898255449 326.2299296613858 0
552 1 1 1 1 -73.81337577792684 95.99689158044812 0
553 1 1 1 1 -455.1694171685858 331.6588480499285 0
554 1 1 1 1 -400.6705679453398 -323.4090737490801 0
555 1 1 1 1 -329.6903871757573 -218.9251669876139 0
556 1 1 1 1 -454.5523487069972 -80.51687202164968 0
557 1 1 1 1 -491.1385705525387 -304.2213509602844 0
558 1 1 1 1 493.4124238458101 120.7943113051801 0
559 1 1 1 1 551.0975689307227 -133.8353987147653 0
560 1 1 1 1 -238.4045372185102 -245.0258395490765 0
561 1 1 1 1 177.0859527327089 -194.1049795425027 0
562 1 1 1 1 -157.0385786791642 176.721209186662 0
563 1 1 1 1 -486.0370846740644 143.2801880696538 0
564 1 1 1 1 521.1405263078992 93.29751474765709 0
565 1 1 1 1 50.1124574026233 -4.057575416353075 0
566 1 1 1 1 279.1109180636877 -254.5732202275552 0
567 1 1 1 1 -216.2163079910443 -61.76253550632983 0
568 1 1 1 1 269.0185536198116 -87.65415228984443 0
569 1 1 1 1 -14.64075360051775 50.53052552202503 0
570 1 1 1 1 -181.2702605566738 -44.04931163053266 0
571 1 1 1 1 363.0697841172858 8.051660386187633 0
572 1 1 1 1 -263.3456333979699 50.0565099497997 0
573 1 1 1 1 -412.1663876975258 295.9303994521412 0
574 1 1 1 1 363.0812502582691 275.2573077934409 0
575 1 1 1 1 -227.5600566988617 -194.0628557298326 0
576 1 1 1 1 -90.34559084303919 343.5337802430871 0
577 1 1 1 1 86.78869611196933 205.5555492426509 0
578 1 1 1 1 -571.9087822730129 90.88857358041778 0
579 1 1 1 1 -16.17934104051892 -293.5991266485745 0
580 1 1 1 1 -113.3688913275633 -345.5593084673805 0
581 1 1 1 1 159.285570765205 -144.8557169225011 0
582 1 1 1 1 -289.6720384241877 284.7255795476675 0
583 1 1 1 1 -365.8353781340479 301.956785651606 0
584 1 1 1 1 222.4318580966339 324.6587404302736 0
585 1 1 1 1 292.9809508314962 -204.041766931632 0
586 1 1 1 1 -482.1490523585894 -95.46631691700941 0
587 1 1 1 1 -387.7111296418464 -15.78587661169659 0
588 1 1 1 1 302.1190229009197 -179.6478834690405 0
589 1 1 1 1 -367.3816863466604 -183.1319637358747 0
590 1 1 1 1 -476.0948853400037 253.6190591852655 0