

2181 atoms
5370 bonds
1 atom types
1 bond types
-396.0000000000001 396.0000000000001 xlo xhi
-237.6 237.6 ylo yhi
-32 32 zlo zhi

Atoms #bpm/sphere

1 1 1 1 1 204.6920970109273 159.5711721115192 0
2 1 1 1 1 -13.16118781859619 30.45865350407828 0
3 1 1 1 1 -241.8740000231371 8.880227360570656 0
4 1 1 1 1 -0.5220777590198793 148.3480014536412 0
5 1 1 1 1 -33.22689462912192 221.9409661688152 0
6 1 1 1 1 16.0124041631705 -107.1819426374258 0
7 1 1 1 1 -385.7384359037612 -123.3629254193483 0
8 1 1 1 1 302.3656540201562 -225.3921314922613 0
9 1 1 1 1 33.68072184808239 -57.65676890154337 0
10 1 1 1 1 146.3935018311637 -195.0654325199961 0
11 1 1 1 1 -273.5624100611382 -176.5740232091629 0
12 1 1 1 1 -309.4151908048415 -132.1932702511696 0
13 1 1 1 1 116.7333263324 25.84427602389315 0
14 1 1 1 1 -19.97814582760186 -225.3938362435069 0
15 1 1 1 1 71.68129296715692 -219.3419199427212 0
16 1 1 1 1 -48.35350768045554 -16.89636494834143 0
17 1 1 1 1 238.891455947823 35.79348409495856 0
18 1 1 1 1 36.63593790147721 62.85542788114923 0
19 1 1 1 1 46.59434999272602 -231.5423745148985 0
20 1 1 1 1 269.4357551120567 231.8906524295347 0
21 1 1 1 1 352.5175706189199 -23.96939818916971 0
22 1 1 1 1 -94.98408466663607 -219.2479093056137 0
23 1 1 1 1 175.050949975786 226.9718059196233 0
24 1 1 1 1 284.8647883084028 -156.6755321705331 0
25 1 1 1 1 -26.05362798515624 -57.63419576140942 0
26 1 1 1 1 -79.70138219797305 188.8818045759899 0
27 1 1 1 1 -190.9041687517309 173.2144842408823 0
28 1 1 1 1 -30.71229059316498 -155.0152215284645 0
29 1 1 1 1 77.36487647433296 121.0711452880143 0
30 1 1 1 1 -69.2137995903537 -214.363411548783 0
31 1 1 1 1 -293.0802098463984 -204.3337111906516 0
32 1 1 1 1 85.5770694783092 219.6002693513101 0
33 1 1 1 1 219.1226917285621 213.6976645847734 0
34 1 1 1 1 111.7191219415188 61.17758980867417 0
35 1 1 1 1 -267.8388388768199 -203.1854590650116 0
36 1 1 1 1 164.3959782487174 -55.03470475772058 0
37 1 1 1 1 383.4996608204729 -196.5541412585607 0
38 1 1 1 1 -75.40509866683917 -96.24758547039299 0
39 1 1 1 1 -283.9646955047357 -127.9131737675842 0
40 1 1 1 1 -120.0860810388962 114.0177513137713 0
41 1 1 1 1 -61.17341973797133 175.6439533713364 0
42 1 1 1 1 -179.7034193958203 -131.5522047036755 0
43 1 1 1 1 372.3518010452603 -234.0801025212355 0
44 1 1 1 1 -393.2734806296721 -25.0982090376671 0
45 1 1 1 1 -69.52988430761549 7.098572463545375 0
46 1 1 1 1 -307.2062550200012 206.9408796158381 0
47 1 1 1 1 -50.05415278349026 60.15043851179899 0
48 1 1 1 1 -134.9976424426637 -33.47941378817354 0
49 1 1 1 1 27.16403594604995 18.6240657831888 0
50 1 1 1 1 -11.14791264929373 -27.19476247769431 0
51 1 1 1 1 360.884068896681 79.87141384409148 0
52 1 1 1 1 -167.4483192044155 51.62679857416428 0
53 1 1 1 1 311.0450693462292 -161.0762812671528 0
54 1 1 1 1 12.79333885371168 -21.73300974596292 0
55 1 1 1 1 -270.8005605127525 33.63536807114932 0
56 1 1 1 1 379.7575553603555 191.9048290235343 0
57 1 1 1 1 361.5339758082632 97.00193111646421 0
58 1 1 1 1 56.97185343612981 138.6260029549099 0
59 1 1 1 1 371.2567825537452 -197.7004262658341 0
60 1 1 1 1 299.5884034981041 101.6116484970286 0
61 1 1 1 1 -359.664602651638 -146.2125217455449 0
62 1 1 1 1 -338.4509245472173 184.0367094665587 0
63 1 1 1 1 225.9298264861444 -119.5499367752061 0
64 1 1 1 1 -218.3637349768358 -159.8170411419368 0
65 1 1 1 1 -184.7074947372861 -234.6317750877295 0
66 1 1 1 1 -91.44285782129975 -190.1181781543385 0
67 1 1 1 1 38.14793354202328 105.9890845768607 0
68 1 1 1 1 90.54207663643815 101.3021524796134 0
69 1 1 1 1 393.6147498735955 -36.74346848204468 0
70 1 1 1 1 -192.7610266535324 235.9557992126569 0
71 1 1 1 1 248.4015881938298 223.56523719777 0
72 1 1 1 1 -43.44670846702717 68.44990939201949 0
73 1 1 1 1 -140.3912132153225 -199.8663118593376 0
74 1 1 1 1 283.1555440285621 33.09619663784706 0
75 1 1 1 1 -170.881576964838 -61.16059689830868 0
76 1 1 1 1 310.169817884675 62.67981776955568 0
77 1 1 1 1 390.8006274242559 77.88553848591135 0
78 1 1 1 1 -152.6678954829499 -104.4743989277965 0
79 1 1 1 1 286.8882312324536 163.539482054485 0
80 1 1 1 1 302.7852019381198 -102.7370789042714 0
81 1 1 1 1 -75.59797364564454 82.06454137629812 0
82 1 1 1 1 233.7763648424269 74.63351220106262 0
83 1 1 1 1 -271.3763947074161 -112.8952839922147 0
84 1 1 1 1 34.114790322133 -41.81853112992942 0
85 1 1 1 1 -131.7810704097122 -174.540774303837 0
86 1 1 1 1 360.1098601697761 207.615598454725 0
87 1 1 1 1 358.3318857969393 134.7588220511876 0
88 1 1 1 1 -168.3083555543292 -133.911653246559 0
89 1 1 1 1 -212.4885469874404 -47.28094782576017 0
90 1 1 1 1 -274.2802169625848 151.9487494603007 0
91 1 1 1 1 107.7278223191905 -93.63295475411351 0
92 1 1 1 1 -209.7707496938441 -180.4323214052598 0
93 1 1 1 1 335.8050109650358 232.2752815860811 0
94 1 1 1 1 161.3274103736308 -173.4755989374861 0
95 1 1 1 1 41.61090991815004 22.32366950433188 0
96 1 1 1 1 -178.3203873578121 153.695796384925 0
97 1 1 1 1 -353.2592713227781 -7.007634642286906 0
98 1 1 1 1 119.510299508876 -145.2991538356894 0
99 1 1 1 1 -301.8186543911692 -121.3500617188397 0
100 1 1 1 1 -159.5876920237462 188.3183884597531 0
101 1 1 1 1 -182.9653981601134 -143.3874158777213 0
102 1 1 1 1 -46.03643614269662 -83.23965303824816 0
103 1 1 1 1 -315.9991601878378 147.2265647212415 0
104 1 1 1 1 184.4835222316426 161.7961875977436 0
105 1 1 1 1 4.904893514593147 93.51295479917754 0
106 1 1 1 1 2.845211279888787 -202.1265663707701 0
107 1 1 1 1 184.2957746360743 -3.719615036484319 0
108 1 1 1 1 23.6079301813255 -53.61562185868804 0
109 1 1 1 1 169.1748712649829 120.689671128148 0
110 1 1 1 1 -99.56742239062395 -142.9598597970212 0
111 1 1 1 1 357.672277207776 183.2216532962385 0
112 1 1 1 1 -3.616115095437494 111.2554468576988 0
113 1 1 1 1 -356.8237991518135 146.2734755690371 0
114 1 1 1 1 -258.2758299784899 -131.918260530434 0
115 1 1 1 1 -327.8894905274906 -162.8376214521813 0
116 1 1 1 1 -106.1639151218353 34.49640587052147 0
117 1 1 1 1 160.1102929671674 105.8046386292331 0
118 1 1 1 1 63.91541353539255 165.1485980761212 0
119 1 1 1 1 23.27275071885575 55.37895770087748 0
120 1 1 1 1 35.90326088593 -23.19784372960787 0
121 1 1 1 1 -350.9645812266751 129.575522603222 0
122 1 1 1 1 -269.7580393284408 -52.84447197724122 0
123 1 1 1 1 -107.7175753204822 -100.5143741866169 0
124 1 1 1 1 -48.87174328446179 40.6713041894067 0
125 1 1 1 1 220.08349007983 5.779632816104462 0
126 1 1 1 1 -294.9479406215846 155.3551227512751 0
127 1 1 1 1 170.2046828452121 -196.0660441130056 0
128 1 1 1 1 -242.9339266315615 -172.9268750302418 0
129 1 1 1 1 -166.3241897111776 93.79134205867716 0
130 1 1 1 1 -379.8848838040387 -177.4532535689753 0
131 1 1 1 1 141.953854900912 226.3291974084572 0
132 1 1 1 1 -235.7308358539382 216.3952749580297 0
133 1 1 1 1 24.41181962592803 -203.8550477608411 0
134 1 1 1 1 -178.6302137982889 15.63018192808058 0
135 1 1 1 1 -158.7909478984574 79.36217537224427 0
136 1 1 1 1 -155.2217852804953 95.49589137407016 0
137 1 1 1 1 -143.2107997686389 -210.5016052690299 0
138 1 1 1 1 -324.7207102198296 -40.88902210118098 0
139 1 1 1 1 -124.2287283164707 -96.93497381099624 0
140 1 1 1 1 -387.4535439438257 186.8964019583487 0
141 1 1 1 1 -388.9987980995996 -193.1709709001723 0
142 1 1 1 1 162.5558733078397 135.9363863492991 0
143 1 1 1 1 -232.9826965206404 79.071600161512 0
144 1 1 1 1 346.4460266844725 161.3638668821669 0
145 1 1 1 1 302.6069247074987 -198.3076774128944 0
146 1 1 1 1 72.63871978912135 -174.498877838864 0
147 1 1 1 1 383.7731044033125 -174.0308515227981 0
148 1 1 1 1 317.2580934416019 142.9519846524078 0
149 1 1 1 1 266.7931928884335 -6.570263573224103 0
150 1 1 1 1 -315.9708638802516 97.98903339737764 0
151 1 1 1 1 -312.343281037374 0.7275039543340882 0
152 1 1 1 1 96.10643858352859 -154.185787448453 0
153 1 1 1 1 -64.88945657527572 102.339107471354 0
154 1 1 1 1 -147.763682516513 117.368114916657 0
155 1 1 1 1 352.1018213779771 -227.041059157102 0
156 1 1 1 1 -151.3570992919001 -130.035885564384 0
157 1 1 1 1 161.8275095925127 -42.4319576638373 0
158 1 1 1 1 375.2583500986695 -164.8134367422732 0
159 1 1 1 1 -139.6612799228716 20.27622097685331 0
160 1 1 1 1 -359.2306704751475 -60.41144384735588 0
161 1 1 1 1 378.8431931171841 211.9796797854486 0
162 1 1 1 1 -44.97719378828247 25.37200459762989 0
163 1 1 1 1 274.4586967697957 74.08536100236897 0
164 1 1 1 1 -220.9564707186915 94.95793744903388 0
165 1 1 1 1 -33.25792686819847 107.066649839345 0
166 1 1 1 1 -368.235901227949 -219.1213782113089 0
167 1 1 1 1 93.12380012331859 16.33058523054652 0
168 1 1 1 1 376.495370692864 144.4266684065414 0
169 1 1 1 1 -7.098123667033275 57.53737980586335 0
170 1 1 1 1 -269.0070762082808 -189.6944224356774 0
171 1 1 1 1 146.7834530780887 181.6322500617909 0
172 1 1 1 1 -196.9810913097841 -19.56068597479999 0
173 1 1 1 1 276.072220517199 126.2533571892725 0
174 1 1 1 1 340.0820638602074 -53.24741511744323 0
175 1 1 1 1 -299.6669254868484 86.47081129349922 0
176 1 1 1 1 -366.7767710088666 226.2116826046682 0
177 1 1 1 1 -160.7803284393068 -162.9600365567331 0
178 1 1 1 1 -379.6671470290993 -45.0763468032678 0
179 1 1 1 1 -120.4949176777524 -55.10025012903683 0
180 1 1 1 1 5.235912716497444 185.6130304117827 0
181 1 1 1 1 -8.392600020663146 9.861547976552945 0
182 1 1 1 1 -117.2546785385235 80.64458712524053 0
183 1 1 1 1 262.6963237607865 184.6148381510082 0
184 1 1 1 1 -127.4673481121541 6.264581336612583 0
185 1 1 1 1 386.5228890519539 15.05251651605753 0
186 1 1 1 1 329.2853560351791 -219.7341861479431 0
187 1 1 1 1 -299.0724305309396 176.4957728207275 0
188 1 1 1 1 -172.9903844515331 192.5216722419392 0
189 1 1 1 1 -94.40985657774583 216.4533626964382 0
190 1 1 1 1 365.0902543951066 149.2005162318316 0
191 1 1 1 1 -313.7786944558434 23.48394732366425 0
192 1 1 1 1 288.2720797830314 199.4678610889603 0
193 1 1 1 1 -242.0150499190587 37.80953999703606 0
194 1 1 1 1 -161.5084287903691 -75.32750554134374 0
195 1 1 1 1 168.7476552922589 180.9351999141869 0
196 1 1 1 1 174.0121185159262 86.90367088683526 0
197 1 1 1 1 9.561361209491702 63.98849919668162 0
198 1 1 1 1 151.9130134659917 -165.1736875044443 0
199 1 1 1 1 378.1930752086652 96.38050239665425 0
200 1 1 1 1 -4.81404713206826 -219.5872595056704 0
201 1 1 1 1 342.575805631828 -191.8464038585969 0
202 1 1 1 1 191.2617509242148 -101.9313050116377 0
203 1 1 1 1 187.488673949966 220.9758720508612 0
204 1 1 1 1 123.8455771727706 198.5650237282417 0
205 1 1 1 1 -279.647336619158 115.8459125180065 0
206 1 1 1 1 335.2417679087791 -23.66723496126995 0
207 1 1 1 1 -197.9558868340943 -212.3716445280413 0
208 1 1 1 1 311.2041816226542 198.1146113253258 0
209 1 1 1 1 -54.64147339733854 -141.6507573589932 0
210 1 1 1 1 32.10461998804079 -220.0733927506379 0
211 1 1 1 1 -369.370864822234 -127.4604815768812 0
212 1 1 1 1 59.08539751473123 53.69201216819944 0
213 1 1 1 1 -205.0116182000755 -4.838291327142059 0
214 1 1 1 1 -90.80239795689221 96.88516468875501 0
215 1 1 1 1 -37.7517473276104 -33.99918226085541 0
216 1 1 1 1 112.9184409318242 -23.02780034476118 0
217 1 1 1 1 100.690708092525 -142.7689043443142 0
218 1 1 1 1 -225.2201666552367 15.31500515408124 0
219 1 1 1 1 386.5449310921111 -103.9284489079991 0
220 1 1 1 1 147.3265422786421 -108.7144592318708 0
221 1 1 1 1 -189.4483439573857 153.8551816582865 0
222 1 1 1 1 -15.69823333552125 153.7415189448338 0
223 1 1 1 1 337.7251711713886 171.4497228225137 0
224 1 1 1 1 97.67181724874534 -29.47449194384082 0
225 1 1 1 1 62.83122279075448 183.8995426680442 0
226 1 1 1 1 -193.487176213497 199.5041787103227 0
227 1 1 1 1 -133.0903641600129 154.511826949045 0
228 1 1 1 1 -384.4516583721592 -31.01621197034632 0
229 1 1 1 1 26.75065124829461 82.00713129859891 0
230 1 1 1 1 -53.21018238441458 96.63642141371427 0
231 1 1 1 1 -318.2537451533076 206.0020378891104 0
232 1 1 1 1 356.7214618805629 -163.3109320831645 0
233 1 1 1 1 -46.07241112128966 -226.2325013393025 0
234 1 1 1 1 -66.50955897958542 52.32763584102098 0
235 1 1 1 1 394.6561122302716 224.8318290859717 0
236 1 1 1 1 -192.167998388267 131.8912390492165 0
237 1 1 1 1 96.48632193328898 -166.3161458253219 0
238 1 1 1 1 128.7756953415239 6.230849600254303 0
239 1 1 1 1 273.2410390657647 -178.3118543695604 0
240 1 1 1 1 60.80370926682829 21.48551701320903 0
241 1 1 1 1 -66.19871010429526 -196.6893895019506 0
242 1 1 1 1 310.6428576192054 155.5376298719039 0
243 1 1 1 1 -144.4547544528152 223.6456550670845 0
244 1 1 1 1 366.2791389892929 53.993710032249 0
245 1 1 1 1 55.98528829637586 9.077770305026386 0
246 1 1 1 1 206.7916464267174 -164.9105010442305 0
247 1 1 1 1 51.83142629973808 -126.1279363957672 0
248 1 1 1 1 111.1255721921489 96.55793507773282 0
249 1 1 1 1 189.7910887496935 -69.05721217331748 0
250 1 1 1 1 -60.2383286725328 -53.5458306418705 0
251 1 1 1 1 291.2874529377695 184.7113355432184 0
252 1 1 1 1 184.2091125553658 -42.53462359520058 0
253 1 1 1 1 240.1733563492245 -212.7427431875426 0
254 1 1 1 1 320.5326269976514 81.17625806090454 0
255 1 1 1 1 -8.941520550703178 -75.42883687660687 0
256 1 1 1 1 -220.4188570146901 -143.1448008991339 0
257 1 1 1 1 -291.9409571867946 201.506220937459 0
258 1 1 1 1 127.1898268776408 -237.3250860026194 0
259 1 1 1 1 -165.6713215187457 -120.5003144718749 0
260 1 1 1 1 -118.4527134464662 -117.7754136676841 0
261 1 1 1 1 -209.2628713853613 -76.20618817528577 0
262 1 1 1 1 -99.00986952675811 205.0682295202291 0
263 1 1 1 1 -20.40641436451708 -141.908478314422 0
264 1 1 1 1 -90.36372391790201 -166.3976466622028 0
265 1 1 1 1 -310.5883454579669 117.6442857000573 0
266 1 1 1 1 147.7958917056904 -178.1978858436852 0
267 1 1 1 1 393.5084287111723 -134.6913517378789 0
268 1 1 1 1 -60.91290521333768 -107.6800868848012 0
269 1 1 1 1 -231.5487913754321 35.55700022559675 0
270 1 1 1 1 9.762193583683393 12.10588547956338 0
271 1 1 1 1 231.946819716335 63.92704481618046 0
272 1 1 1 1 268.011045798622 36.61935745842885 0
273 1 1 1 1 -156.1478813091733 -33.5125526399716 0
274 1 1 1 1 67.21877561106518 -152.4559240919966 0
275 1 1 1 1 -253.9722169168917 -182.3974756377576 0
276 1 1 1 1 237.3106726808655 -96.87085820951631 0
277 1 1 1 1 8.231347464621223 124.9636354315086 0
278 1 1 1 1 93.67232940786619 76.56817757301614 0
279 1 1 1 1 -210.8753157745028 68.89098251408808 0
280 1 1 1 1 -258.8351927658221 147.050225607541 0
281 1 1 1 1 369.7622224690174 -186.5870891276124 0
282 1 1 1 1 -128.9801674182887 127.8344782647024 0
283 1 1 1 1 310.2738392967871 -131.9173337914641 0
284 1 1 1 1 -372.1319828790821 -81.78672905247629 0
285 1 1 1 1 -81.01726370824773 -188.1299619253373 0
286 1 1 1 1 -220.234445923477 -69.81175417067099 0
287 1 1 1 1 -92.9733576874268 -0.2852518544900562 0
288 1 1 1 1 335.8250857530179 79.95058147271571 0
289 1 1 1 1 -158.7570340754837 219.3435354428115 0
290 1 1 1 1 191.1333329014886 -179.3637052310107 0
291 1 1 1 1 -361.0761030908467 -175.784473954185 0
292 1 1 1 1 -373.8155311215572 -55.82995097141142 0
293 1 1 1 1 -145.1672512081166 186.8414670320578 0
294 1 1 1 1 85.58834937213467 27.58417641074412 0
295 1 1 1 1 48.25873601112912 -70.36203425047083 0
296 1 1 1 1 187.4350500358838 235.8472965937079 0
297 1 1 1 1 139.672635950809 172.3809050523996 0
298 1 1 1 1 -329.5015512460003 65.23096236970112 0
299 1 1 1 1 8.447788131709586 27.73729034944908 0
300 1 1 1 1 312.0319120794596 -40.08276606371923 0
301 1 1 1 1 275.553367864857 22.49569860540727 0
302 1 1 1 1 141.6624622023522 -54.87790600849279 0
303 1 1 1 1 -142.3512966555987 -235.6206863337774 0
304 1 1 1 1 11.70756430358546 78.17003257751485 0
305 1 1 1 1 -304.728997048561 -51.77723179918454 0
306 1 1 1 1 307.6770995310746 -119.796966646644 0
307 1 1 1 1 33.36707021195207 -0.2219905837206454 0
308 1 1 1 1 -70.42622453989178 -228.6044746368879 0
309 1 1 1 1 275.4279910581483 53.1370931993204 0
310 1 1 1 1 -94.69591029338277 -23.6422077095946 0
311 1 1 1 1 336.9730098041467 137.3148316600903 0
312 1 1 1 1 102.5107234605331 163.2640318252153 0
313 1 1 1 1 -211.8909277237877 -113.5769124643352 0
314 1 1 1 1 -84.25676948589953 -9.17930321176793 0
315 1 1 1 1 -130.6354800059079 -48.47752887373477 0
316 1 1 1 1 8.545384550992351 0.9852237664810531 0
317 1 1 1 1 -394.5369676370204 -43.14239751185063 0
318 1 1 1 1 -247.7597429866816 -30.74000064545372 0
319 1 1 1 1 264.2450028258982 14.15948510795831 0
320 1 1 1 1 -234.7833605661444 158.1321529546405 0
321 1 1 1 1 60.45104150271758 -110.0549139822862 0
322 1 1 1 1 184.9625273797184 57.05193868788486 0
323 1 1 1 1 -104.297645822055 -187.0137066647978 0
324 1 1 1 1 -86.58702237851885 225.3721032663947 0
325 1 1 1 1 -21.6261574695903 -99.94342331368392 0
326 1 1 1 1 198.6319035125715 227.7787956041113 0
327 1 1 1 1 153.2864851772267 -145.6387909979164 0
328 1 1 1 1 24.79475098263029 -22.63334943096955 0
329 1 1 1 1 104.6518344648314 -185.8827636503649 0
330 1 1 1 1 119.3069278598758 141.5876839358447 0
331 1 1 1 1 -373.1077556066036 102.9788596207672 0
332 1 1 1 1 303.8585225417189 6.340421730122168 0
333 1 1 1 1 -259.2665914537202 -70.63770818868171 0
334 1 1 1 1 -120.2516642431027 -4.76752568410648 0
335 1 1 1 1 242.2036803270564 -137.432767242109 0
336 1 1 1 1 -32.58357109519348 -205.5743109183127 0
337 1 1 1 1 199.217565743116 -123.8258923225815 0
338 1 1 1 1 208.6158961172952 -17.02326373988778 0
339 1 1 1 1 358.9574808932164 -46.61675214343601 0
340 1 1 1 1 -386.8330155545841 -204.4621335330415 0
341 1 1 1 1 -126.626262500252 56.1675837803765 0
342 1 1 1 1 169.893632380447 -235.5969017398645 0
343 1 1 1 1 45.52620223061378 -104.9699030043623 0
344 1 1 1 1 -240.3410826170008 -84.31496275447407 0
345 1 1 1 1 -383.5911928046253 -74.62409242012474 0
346 1 1 1 1 -12.24723866826186 -196.8445440338278 0
347 1 1 1 1 -238.2521086109335 188.9958169308454 0
348 1 1 1 1 -348.8159477633252 79.57627553401593 0
349 1 1 1 1 -291.305304727821 -83.63888541727276 0
350 1 1 1 1 147.5792802007477 156.3471510013362 0
351 1 1 1 1 29.13453097264021 93.10283986545605 0
352 1 1 1 1 -208.5347559853037 -28.78211653699895 0
353 1 1 1 1 157.3944573886753 -194.2240161593317 0
354 1 1 1 1 -229.1176166565105 68.17771988593921 0
355 1 1 1 1 -63.42134187206129 19.48603630081812 0
356 1 1 1 1 247.1667892302521 -188.191229752559 0
357 1 1 1 1 102.1365380260213 38.34327975109522 0
358 1 1 1 1 106.8668794055251 -235.2811759655142 0
359 1 1 1 1 207.0983999577634 -97.30385488171207 0
360 1 1 1 1 -247.6582529668229 -195.1031876209523 0
361 1 1 1 1 117.4331010595456 -65.05049911404247 0
362 1 1 1 1 -107.5092176544968 222.8051788126613 0
363 1 1 1 1 -281.9385749468287 192.0272952893001 0
364 1 1 1 1 -160.1127373231617 -229.0697450498316 0
365 1 1 1 1 141.5804515319503 -219.4967963417986 0
366 1 1 1 1 306.7255244459149 235.0005223371622 0
367 1 1 1 1 359.4066752070544 -133.5043387618679 0
368 1 1 1 1 20.63281780142793 114.0680857548683 0
369 1 1 1 1 -51.72475434284804 -237.3983191435557 0
370 1 1 1 1 -286.5650279869677 -192.2348445437178 0
371 1 1 1 1 163.9230980731487 94.64521241139677 0
372 1 1 1 1 -261.5700102383352 91.3391190671244 0
373 1 1 1 1 -10.23628764462946 -109.8168357567373 0
374 1 1 1 1 -322.8398690471042 166.0617053905721 0
375 1 1 1 1 -395.3629831850921 -175.3307646706106 0
376 1 1 1 1 379.9171887356276 224.8119108604534 0
377 1 1 1 1 246.0283804021281 119.4534980207039 0
378 1 1 1 1 46.37778990785123 -159.4468833467411 0
379 1 1 1 1 318.6244063612144 54.94664514085712 0
380 1 1 1 1 70.5391263453122 -14.19775236298604 0
381 1 1 1 1 -211.1400335049975 205.650970069748 0
382 1 1 1 1 210.4504367400182 -207.7006153601802 0
383 1 1 1 1 -164.4963997698172 -175.7834902881259 0
384 1 1 1 1 -50.10586989316055 -61.17203431782473 0
385 1 1 1 1 355.8198669171545 7.740325224954413 0
386 1 1 1 1 -92.32168664335052 171.9924926094757 0
387 1 1 1 1 -203.0494068784288 39.56665278555774 0
388 1 1 1 1 252.4914824002842 97.47326471070883 0
389 1 1 1 1 -282.5494725896778 89.96531961316627 0
390 1 1 1 1 345.8718157544049 29.47681158447691 0
391 1 1 1 1 -86.21040181294549 158.0743186519904 0
392 1 1 1 1 -137.1122717323514 -224.2743679503476 0
393 1 1 1 1 -317.6604940342093 -50.66362777912462 0
394 1 1 1 1 99.24427102060947 -74.53706992648684 0
395 1 1 1 1 372.9103550389467 85.82277193214924 0
396 1 1 1 1 -309.1688670061051 157.0240054740794 0
397 1 1 1 1 206.3680026296445 27.18176685832255 0
398 1 1 1 1 326.3186773419956 209.6979747389784 0
399 1 1 1 1 -360.2741315482399 208.5187397949963 0
400 1 1 1 1 395.1012307734173 35.28666645742807 0
401 1 1 1 1 364.6208761951417 -91.48475464918286 0
402 1 1 1 1 -257.8143432597485 55.25079279797694 0
403 1 1 1 1 -199.3511729568425 166.8768855848725 0
404 1 1 1 1 15.55052743639943 -93.30689046109374 0
405 1 1 1 1 -108.8404273390478 102.4813914477238 0
406 1 1 1 1 -185.7387143009758 64.17045439874104 0
407 1 1 1 1 -268.4310634726379 53.60251117707617 0
408 1 1 1 1 -305.8257802709308 -142.6557136972671 0
409 1 1 1 1 -73.07043291473092 208.4926001517418 0
410 1 1 1 1 -378.4420855149471 -113.2548906463338 0
411 1 1 1 1 -251.6217452460383 -146.9446201697128 0
412 1 1 1 1 -285.2150495250227 -228.3552633200266 0
413 1 1 1 1 212.1421165351918 -57.69327949689934 0
414 1 1 1 1 -302.2968956014551 -11.43733724442217 0
415 1 1 1 1 -218.5390163267094 -19.73811130244838 0
416 1 1 1 1 -21.00101460466189 -124.5334375234227 0
417 1 1 1 1 -84.90769469035968 -205.3302185622393 0
418 1 1 1 1 -185.9126431049089 226.5333393111377 0
419 1 1 1 1 -387.1249653578078 71.06978895986234 0
420 1 1 1 1 -290.1723093842898 142.1193278366269 0
421 1 1 1 1 81.33536646581695 130.962965660561 0
422 1 1 1 1 -317.113006610207 77.42887742199339 0
423 1 1 1 1 -140.2018401784577 61.13741744490179 0
424 1 1 1 1 -185.8152818461477 -111.6483427051529 0
425 1 1 1 1 157.6833932789859 236.8631851303363 0
426 1 1 1 1 21.11647306526865 165.7297188796685 0
427 1 1 1 1 89.15388139275841 38.14900680902001 0
428 1 1 1 1 202.8844371612733 138.8868169492461 0
429 1 1 1 1 34.01141326047261 164.8960755363487 0
430 1 1 1 1 -160.3192077912826 -47.71705980153744 0
431 1 1 1 1 371.1400437127585 8.90945210456141 0
432 1 1 1 1 -325.1585772269516 -80.60358388992773 0
433 1 1 1 1 308.0461075009366 -73.45225901491619 0
434 1 1 1 1 293.6336936444884 219.475018459696 0
435 1 1 1 1 -166.5257518296626 112.1230201892619 0
436 1 1 1 1 373.3897247361924 162.6821616783169 0
437 1 1 1 1 -131.3512875021418 71.42388735865829 0
438 1 1 1 1 103.6767510557352 -3.3239696677758 0
439 1 1 1 1 -114.2532316632195 197.0380023823312 0
440 1 1 1 1 114.545757539612 -102.6758967151071 0
441 1 1 1 1 218.0141502518242 -95.41234922993317 0
442 1 1 1 1 -352.124558050247 60.66668084744368 0
443 1 1 1 1 -260.6303504210741 -35.18741765009617 0
444 1 1 1 1 150.9551427087566 91.40167897068288 0
445 1 1 1 1 -127.5860082641358 223.7456090960781 0
446 1 1 1 1 106.1043263057247 10.63301549629342 0
447 1 1 1 1 306.0405634371566 210.6311451379673 0
448 1 1 1 1 -249.7648415320136 122.1932545010654 0
449 1 1 1 1 366.9954930956124 -27.84847908715372 0
450 1 1 1 1 7.60893359436372 225.7648431692716 0
451 1 1 1 1 349.5752549029433 216.9158285003163 0
452 1 1 1 1 282.4102803760227 176.6523193956755 0
453 1 1 1 1 -284.1118003069593 -17.76293170605747 0
454 1 1 1 1 -185.6567081634271 -23.67578794599429 0
455 1 1 1 1 -319.1111844594 176.5020877577454 0
456 1 1 1 1 255.6263758757999 -137.7926446339073 0
457 1 1 1 1 -153.2036123431612 51.43677239822749 0
458 1 1 1 1 -195.0952332821836 214.7724219181704 0
459 1 1 1 1 31.19196625364906 -78.24667052843991 0
460 1 1 1 1 195.7572516497393 4.882002758370678 0
461 1 1 1 1 -332.2741450475039 -197.2958720215997 0
462 1 1 1 1 -16.42866009261809 168.8624184352531 0
463 1 1 1 1 -246.5604905379416 -127.9759332815032 0
464 1 1 1 1 362.6156039096763 21.41879853236955 0
465 1 1 1 1 30.18128446094979 -96.5104396910403 0
466 1 1 1 1 71.94216664626978 197.2970345662682 0
467 1 1 1 1 130.8474950612542 -61.91623971491162 0
468 1 1 1 1 -160.7688905712464 130.4454561845838 0
469 1 1 1 1 223.9898419444683 -190.4044545382901 0
470 1 1 1 1 -54.02989850112463 -193.2333339385003 0
471 1 1 1 1 -354.9287177306644 191.4330613731835 0
472 1 1 1 1 -180.320619063821 170.9185198156477 0
473 1 1 1 1 170.6469420557172 -123.3566740737828 0
474 1 1 1 1 -218.0794595878214 82.08805204526429 0
475 1 1 1 1 60.31381871771098 123.1484951220459 0
476 1 1 1 1 -122.9378008562655 -84.06170812659995 0
477 1 1 1 1 279.6160345616257 217.1276842697226 0
478 1 1 1 1 -119.5722679944328 -43.17876741406872 0
479 1 1 1 1 120.0272935561668 -88.91023983737286 0
480 1 1 1 1 -347.7951185920111 33.40841803100391 0
481 1 1 1 1 113.5089572697514 74.22384725607958 0
482 1 1 1 1 195.0756038715821 105.3072652139436 0
483 1 1 1 1 -200.8096087890596 58.79578939774822 0
484 1 1 1 1 153.2862122208714 123.1473196519522 0
485 1 1 1 1 -40.14018946243004 142.9701672679126 0
486 1 1 1 1 -332.9191138265823 215.4729555295424 0
487 1 1 1 1 328.3354274725809 -1.058097255657001 0
488 1 1 1 1 -189.0934724436901 76.04382616702455 0
489 1 1 1 1 13.64663870278632 -68.59648491029016 0
490 1 1 1 1 358.6072537768923 -58.72745791793937 0
491 1 1 1 1 -310.0935559392759 236.8320035739248 0
492 1 1 1 1 -174.2087592064703 75.79308098865208 0
493 1 1 1 1 -269.9688041086779 138.6123248410151 0
494 1 1 1 1 177.6927512820192 -90.90669270421898 0
495 1 1 1 1 -42.93106523794616 -195.7501707229559 0
496 1 1 1 1 -18.93576855675671 71.72367954080264 0
497 1 1 1 1 9.630452539626038 207.1068187359718 0
498 1 1 1 1 236.3789559352541 125.7030528357166 0
499 1 1 1 1 106.1725704302556 -220.4950534117479 0
500 1 1 1 1 -285.0392659488946 -176.3411256010116 0
501 1 1 1 1 -191.7559227085613 16.46768303262164 0
502 1 1 1 1 157.8669667568373 -92.79441939937328 0
503 1 1 1 1 395.8579654778021 151.6635986068478 0
504 1 1 1 1 -80.64517255985179 39.36098749731378 0
505 1 1 1 1 -23.4034632611733 217.4190446125415 0
506 1 1 1 1 -354.7289305121741 -48.65400262668693 0
507 1 1 1 1 -161.4596569183361 -3.980175864674357 0
508 1 1 1 1 -16.50013720692247 108.5975915322893 0
509 1 1 1 1 173.7182956302285 30.56921973238412 0
510 1 1 1 1 126.2803267559974 58.73281411702145 0
511 1 1 1 1 -102.4121033404196 -227.5834974690465 0
512 1 1 1 1 -325.9501546692419 -109.9354069993345 0
513 1 1 1 1 109.1015839648013 -206.4894586660481 0
514 1 1 1 1 -78.42615207561514 -110.7306964865208 0
515 1 1 1 1 320.8020696392044 119.0120083879283 0
516 1 1 1 1 386.3983949497386 54.03941457288333 0
517 1 1 1 1 -121.108444524369 -189.471747253669 0
518 1 1 1 1 94.15413424297553 -8.269318973962399 0
519 1 1 1 1 -233.3413410104231 -11.51192583343117 0
520 1 1 1 1 217.8313048719822 131.9353955030151 0
521 1 1 1 1 158.6152562314596 174.6766879461827 0
522 1 1 1 1 348.8456253894994 197.6076769095379 0
523 1 1 1 1 130.1146643403311 -103.2481443243872 0
524 1 1 1 1 261.0146979189509 139.577428350876 0
525 1 1 1 1 48.4444323062307 -85.67879101766177 0
526 1 1 1 1 237.846134587257 199.5775821105382 0
527 1 1 1 1 -276.2160471172809 -72.64538640830543 0
528 1 1 1 1 182.3757572502118 -185.3445813149763 0
529 1 1 1 1 187.0344833685032 -147.6024951119722 0
530 1 1 1 1 -288.4597377596314 71.33419794462927 0
531 1 1 1 1 208.6110307435801 -4.059167580531085 0
532 1 1 1 1 -308.66254677925 57.27986214757687 0
533 1 1 1 1 127.5168945909324 -221.19901578604 0
534 1 1 1 1 -198.2665005847851 -34.69448861344362 0
535 1 1 1 1 -142.4694603535037 -49.43644722185815 0
536 1 1 1 1 5.004899787043178 -118.7957544430227 0
537 1 1 1 1 235.937655243752 210.0658513655806 0
538 1 1 1 1 -96.72456285664815 44.15259892542332 0
539 1 1 1 1 -362.0127053391497 -100.8614804465601 0
540 1 1 1 1 -242.7963608631518 172.1465898105402 0
541 1 1 1 1 328.8508868431932 -160.8450103794234 0
542 1 1 1 1 301.2784280623139 -17.84942193826546 0
543 1 1 1 1 -49.43806201641347 -42.21627659457757 0
544 1 1 1 1 243.7444906694523 148.7955993927283 0
545 1 1 1 1 -88.74293872315953 -46.77752693656982 0
546 1 1 1 1 -16.62820249155884 232.4433666339879 0
547 1 1 1 1 281.9361201429463 63.44449822495726 0
548 1 1 1 1 375.8079219896281 121.6996860276638 0
549 1 1 1 1 93.3114925375351 154.2519854629653 0
550 1 1 1 1 24.48711023221419 235.1464063951159 0
551 1 1 1 1 -210.2691259268252 22.44608647253412 0
552 1 1 1 1 279.9103692392399 -223.7497063631596 0
553 1 1 1 1 2.257131338153585 -139.7652727496821 0
554 1 1 1 1 -247.4848010771767 138.0374609577172 0
555 1 1 1 1 245.4393722600695 -117.4236728794522 0
556 1 1 1 1 -116.2990902896702 -75.48798068337825 0
557 1 1 1 1 -299.7104231839538 220.1213425181369 0
558 1 1 1 1 261.6834222914474 -65.88993730781849 0
559 1 1 1 1 115.5938402434428 182.0075841772863 0
560 1 1 1 1 -156.9045724623624 62.30802573399598 0
561 1 1 1 1 91.17405755492 125.3182579775945 0
562 1 1 1 1 261.5765298452969 -38.30722842789977 0
563 1 1 1 1 -273.2604882297898 182.6250065441983 0
564 1 1 1 1 68.77121818717914 -61.99373503620001 0
565 1 1 1 1 324.406649581084 180.9382870263455 0
566 1 1 1 1 133.4135077142663 237.0257958992571 0
567 1 1 1 1 -173.8862780580871 -154.2766333212862 0
568 1 1 1 1 24.86461001661418 131.3876001329096 0
569 1 1 1 1 -123.7323019055474 -207.2600319898421 0
570 1 1 1 1 -266.3957472163416 -98.53350215256778 0
571 1 1 1 1 -371.3774057192583 170.6163171279558 0
572 1 1 1 1 332.7192073208703 108.0633528958025 0
573 1 1 1 1 54.16915342716849 -53.87062670170164 0
574 1 1 1 1 -221.699031691166 111.2493117746519 0
575 1 1 1 1 332.2655122472282 59.21243241062113 0
576 1 1 1 1 -308.0083808211364 -155.9311975147921 0
577 1 1 1 1 108.422376342219 133.1698765605883 0
578 1 1 1 1 301.4108769012807 -30.94883069158195 0
579 1 1 1 1 -2.326007741367608 33.31832003375434 0
580 1 1 1 1 -182.4992962376953 -163.7856153568044 0
581 1 1 1 1 -59.31095479788724 139.3647817188335 0
582 1 1 1 1 166.3695374333228 69.06626853553634 0
583 1 1 1 1 336.058572620861 12.07076485174914 0
584 1 1 1 1 392.7729530285712 -155.0887082561625 0
585 1 1 1 1 44.03019952560187 -216.8360784068403 0
586 1 1 1 1 -209.5752796271986 -209.8230945874015 0
587 1 1 1 1 209.7269095217756 101.845541673325 0
588 1 1 1 1 -391.4062967812616 203.4895704159274 0
589 1 1 1 1 89.63524514518142 195.6799664617597 0
590 1 1 1 1 -214.0053493986249 174.8774021203726 0