

729 atoms
1635 bonds
1 atom types
1 bond types
-160 160 xlo xhi
-160 160 ylo yhi
-32 32 zlo zhi

Atoms #bpm/sphere

1 1 1 1 1 -26.55295849517631 70.50383790149058 0
2 1 1 1 1 -159.9634000584496 -63.25357675781127 0
3 1 1 1 1 -113.0381149385238 -130.4516496739847 0
4 1 1 1 1 -100.3967323591453 -49.42056734622471 0
5 1 1 1 1 -33.03440824618562 12.42135488107422 0
6 1 1 1 1 -25.85775539094567 59.27024012696305 0
7 1 1 1 1 -94.57528008591441 120.9975796451025 0
8 1 1 1 1 -151.2359701766636 54.54960325708871 0
9 1 1 1 1 -115.0761796495252 -96.60752349283879 0
10 1 1 1 1 96.23826197617171 149.8437042302072 0
11 1 1 1 1 -59.70426298904229 61.54323701418051 0
12 1 1 1 1 120.4445287347323 126.2741323212311 0
13 1 1 1 1 -132.7858523616711 -147.5024693654777 0
14 1 1 1 1 -105.6542657393379 121.0056010974122 0
15 1 1 1 1 -128.529013173424 -25.2455599983833 0
16 1 1 1 1 146.5246496481606 10.61289119136546 0
17 1 1 1 1 61.40067646415147 -59.03499807805986 0
18 1 1 1 1 59.68029685810677 107.0802150071593 0
19 1 1 1 1 -154.1477512498586 80.0461807823896 0
20 1 1 1 1 156.4355484500783 79.41300940154861 0
21 1 1 1 1 -70.25792253939034 92.56938510447634 0
22 1 1 1 1 130.7505609897906 -66.04347252042257 0
23 1 1 1 1 -67.91189165236841 -118.3908569221511 0
24 1 1 1 1 -92.27900287998111 -75.02506900088761 0
25 1 1 1 1 -2.696589030291761 -142.9239855625343 0
26 1 1 1 1 23.71763375744419 -113.0468560301408 0
27 1 1 1 1 28.57777180905094 63.92267520669799 0
28 1 1 1 1 62.20805047287843 -27.46263375139114 0
29 1 1 1 1 -144.0148931372521 11.4868498929637 0
30 1 1 1 1 52.41428647033243 4.76451585865874 0
31 1 1 1 1 142.2703219170602 27.69761296063774 0
32 1 1 1 1 129.0886128921227 -116.008094673204 0
33 1 1 1 1 -115.4315688797573 98.36521238704762 0
34 1 1 1 1 -32.74341216462926 -107.0866569225815 0
35 1 1 1 1 136.8027457267308 -48.7149248814379 0
36 1 1 1 1 80.25987300356977 72.31935531214447 0
37 1 1 1 1 122.6579491858591 39.57510625779486 0
38 1 1 1 1 80.30157888874788 -48.35253056709038 0
39 1 1 1 1 -73.62307463519166 126.6835898227414 0
40 1 1 1 1 -23.01081924118563 148.7488150874834 0
41 1 1 1 1 52.30127930190338 38.94263046691896 0
42 1 1 1 1 -123.2812886549199 143.8365627862628 0
43 1 1 1 1 -16.02811728641905 25.08467660388217 0
44 1 1 1 1 -29.39622311639002 -84.15136632223113 0
45 1 1 1 1 129.0814465799212 23.57743573513147 0
46 1 1 1 1 -159.0814953500291 37.48637235863163 0
47 1 1 1 1 -55.47363143292924 8.658592722434975 0
48 1 1 1 1 123.5014717794479 -45.67367679920008 0
49 1 1 1 1 -154.937202289102 137.4199147980036 0
50 1 1 1 1 61.08701360541568 159.1433121444738 0
51 1 1 1 1 -104.8510373294949 -116.1165601187591 0
52 1 1 1 1 138.4305481718923 62.98181167676805 0
53 1 1 1 1 -138.87994472894 81.74817683278923 0
54 1 1 1 1 81.24038030759885 135.3678513748746 0
55 1 1 1 1 67.68792276111097 -120.2332921689073 0
56 1 1 1 1 -153.6383571712654 -151.6124841991298 0
57 1 1 1 1 -150.9419238333457 -81.21245836702531 0
58 1 1 1 1 115.2089435785242 12.42594058932892 0
59 1 1 1 1 16.90303317944509 109.4498855550738 0
60 1 1 1 1 -120.2645391616284 -70.66122271643536 0
61 1 1 1 1 27.44296686665211 150.2706394622958 0
62 1 1 1 1 19.5296701618272 -154.0328674006582 0
63 1 1 1 1 96.20245525779723 -85.44823237087346 0
64 1 1 1 1 98.27366259800931 -35.88459389946505 0
65 1 1 1 1 116.3333934590172 79.07892567589909 0
66 1 1 1 1 -140.8263393560923 -121.170094162964 0
67 1 1 1 1 -87.77301164548649 68.15647372245652 0
68 1 1 1 1 -136.9682304993642 149.5284256000871 0
69 1 1 1 1 21.79214781438148 -94.94616490848304 0
70 1 1 1 1 -79.2557617374965 78.02427330402975 0
71 1 1 1 1 -97.46256604501798 26.0348567274425 0
72 1 1 1 1 150.4063965082599 110.9852164768113 0
73 1 1 1 1 -83.24871707277242 -1.993691434006422 0
74 1 1 1 1 38.38582988204152 105.2738878560572 0
75 1 1 1 1 -109.826753713253 -154.055615303229 0
76 1 1 1 1 -137.5929140098489 -4.369564500149806 0
77 1 1 1 1 34.02542772906571 22.03245986767402 0
78 1 1 1 1 -58.44402901690856 156.3571694119836 0
79 1 1 1 1 25.51847015865502 -38.35482476046387 0
80 1 1 1 1 16.30343011772698 78.50701789008068 0
81 1 1 1 1 54.15452590501906 -75.22574154790099 0
82 1 1 1 1 -138.7728529828987 -41.57305666748599 0
83 1 1 1 1 41.50960224690064 -92.74431682725134 0
84 1 1 1 1 80.88177719642044 -138.7083259666832 0
85 1 1 1 1 -98.10102956053512 44.62748188158085 0
86 1 1 1 1 7.894498919594781 135.9385505277922 0
87 1 1 1 1 -75.74503344412449 -138.8924509811124 0
88 1 1 1 1 75.22110825237422 87.09696945383897 0
89 1 1 1 1 130.5010728011277 138.2310621429879 0
90 1 1 1 1 37.36907424053044 143.6852226200373 0
91 1 1 1 1 132.9940319252079 45.30118686282802 0
92 1 1 1 1 -35.1975314748012 -4.482986528988874 0
93 1 1 1 1 -33.63980386446244 148.2440091010278 0
94 1 1 1 1 -116.774669425046 1.811893016606945 0
95 1 1 1 1 104.6769507746344 -155.1939261625208 0
96 1 1 1 1 -49.6842711413461 140.8343943466775 0
97 1 1 1 1 26.24453758306561 121.2262350117901 0
98 1 1 1 1 110.315022525511 129.7255419867678 0
99 1 1 1 1 -12.83831493862178 14.83098112651945 0
100 1 1 1 1 95.5531491686526 -68.56996744507278 0
101 1 1 1 1 -3.118872761623123 31.71529844668106 0
102 1 1 1 1 -21.22356832337334 98.35536924314925 0
103 1 1 1 1 -59.12166300948066 125.7243867280484 0
104 1 1 1 1 92.13735482416138 35.84997665437885 0
105 1 1 1 1 -142.7490329363991 -25.5380223996377 0
106 1 1 1 1 57.30202770093746 133.9525689528083 0
107 1 1 1 1 -159.8713520347656 152.5629276899391 0
108 1 1 1 1 23.90768150659272 40.98438345835211 0
109 1 1 1 1 -68.61558985737794 27.78666900994654 0
110 1 1 1 1 80.00696438485119 114.6604276572936 0
111 1 1 1 1 116.6334176174719 -56.74208101224113 0
112 1 1 1 1 54.65241305202792 -15.72034034772827 0
113 1 1 1 1 -37.72711934991449 -28.5403680249006 0
114 1 1 1 1 -31.52653328974702 -58.43713729335138 0
115 1 1 1 1 39.01419773449646 -22.32087333719539 0
116 1 1 1 1 151.6166649367207 56.89628525897956 0
117 1 1 1 1 -96.45763570332451 -23.45567700862949 0
118 1 1 1 1 -50.12920327218464 95.24441726674129 0
119 1 1 1 1 -79.24265551853128 113.5673416631687 0
120 1 1 1 1 8.868686818798921 96.69154688147137 0
121 1 1 1 1 6.083720788497857 86.68285136060416 0
122 1 1 1 1 22.03455702550897 -10.97283885056612 0
123 1 1 1 1 -50.33954945494983 -138.1730085066547 0
124 1 1 1 1 -39.06426261500805 -134.5196551365592 0
125 1 1 1 1 154.5014763937424 -101.8838875741556 0
126 1 1 1 1 99.79478327057274 119.9877263858874 0
127 1 1 1 1 60.29224076350187 22.23821207852023 0
128 1 1 1 1 -108.4891402190052 -10.59839271574197 0
129 1 1 1 1 -49.5449436303312 -87.98721349949292 0
130 1 1 1 1 29.60379800505495 -60.07365193538658 0
131 1 1 1 1 -77.72214598969722 -124.5147837619106 0
132 1 1 1 1 -98.25192575388388 -0.1330653827564561 0
133 1 1 1 1 73.1474137518708 -93.37777970918673 0
134 1 1 1 1 -26.92841015439126 37.33922148967559 0
135 1 1 1 1 5.074245429929533 -7.314884144069651 0
136 1 1 1 1 -111.1450738901878 38.97799415693297 0
137 1 1 1 1 14.08323802046021 49.32395103063817 0
138 1 1 1 1 -113.7454271601089 80.48890148327803 0
139 1 1 1 1 -88.94427526402474 6.192583797130567 0
140 1 1 1 1 91.29472903091806 -152.854263042622 0
141 1 1 1 1 117.3146477332842 143.9379172331605 0
142 1 1 1 1 -128.4021114174885 48.41738634911712 0
143 1 1 1 1 65.12543620884895 35.27706004692149 0
144 1 1 1 1 -76.896514144527 -77.73782437691307 0
145 1 1 1 1 42.3370615776409 -49.50481229085391 0
146 1 1 1 1 94.908376962332 -17.23320575889369 0
147 1 1 1 1 128.4186996317676 13.29900124395945 0
148 1 1 1 1 151.9169186736263 43.7134080006071 0
149 1 1 1 1 158.0521678753532 14.74265732574452 0
150 1 1 1 1 8.456298849766824 -116.6630710169056 0
151 1 1 1 1 -46.17434528515804 -151.6100584651605 0
152 1 1 1 1 -150.2720992227876 -42.70620888200182 0
153 1 1 1 1 115.9508009081741 61.65686960235337 0
154 1 1 1 1 61.10148546117392 -99.63622369430053 0
155 1 1 1 1 80.05517225535769 -13.76789522057831 0
156 1 1 1 1 -92.1727473140237 95.55335832326728 0
157 1 1 1 1 -64.85395791767289 -151.1660761745588 0
158 1 1 1 1 29.89838382867873 110.0289372579804 0
159 1 1 1 1 -38.07484030009147 79.95465943236587 0
160 1 1 1 1 3.565273055081036 13.10457758790037 0
161 1 1 1 1 147.0189827397608 97.26748527956698 0
162 1 1 1 1 -149.6566186804563 67.00392039401441 0
163 1 1 1 1 -11.19952589967806 143.2156612464319 0
164 1 1 1 1 96.9482359595961 62.9761587584571 0
165 1 1 1 1 110.6724745688568 -22.79399200017838 0
166 1 1 1 1 103.683158531942 40.47877075977399 0
167 1 1 1 1 -154.1335542678377 -138.6480007554059 0
168 1 1 1 1 -13.25317961330182 -123.730584714371 0
169 1 1 1 1 -15.23045544113552 -15.97224095975645 0
170 1 1 1 1 -7.016797850294097 -8.318743500097924 0
171 1 1 1 1 129.4995713099594 -148.1404646547085 0
172 1 1 1 1 87.63978967053396 -119.7947580359236 0
173 1 1 1 1 37.92434141186735 -156.6834363727258 0
174 1 1 1 1 144.3820113568655 129.728650784889 0
175 1 1 1 1 94.7094214215262 132.887782372732 0
176 1 1 1 1 -113.4213660293129 -109.5263776414293 0
177 1 1 1 1 129.8590387226566 156.7856570749036 0
178 1 1 1 1 67.5591868050611 74.17613092553449 0
179 1 1 1 1 130.9738254541614 -31.72040564124131 0
180 1 1 1 1 -80.04778232798824 -104.5023453481207 0
181 1 1 1 1 102.1085371627299 -60.61207942585281 0
182 1 1 1 1 154.3735837737417 -74.67561531147673 0
183 1 1 1 1 10.76907039078765 -59.37055642052812 0
184 1 1 1 1 -21.25045527258735 3.933661529075636 0
185 1 1 1 1 140.4436727583083 -150.0963179932318 0
186 1 1 1 1 69.40117236214053 125.1260653735484 0
187 1 1 1 1 -55.68326023359191 115.0365826769875 0
188 1 1 1 1 18.72529629520571 60.87291781207932 0
189 1 1 1 1 -15.08688001550803 41.0588920068343 0
190 1 1 1 1 139.7978820189099 110.1855835410282 0
191 1 1 1 1 134.4660845778113 -87.07190721557858 0
192 1 1 1 1 -132.0056929428509 -87.2608843888996 0
193 1 1 1 1 -59.39948284350386 -104.0749195659803 0
194 1 1 1 1 101.2324837847085 -100.7582725539102 0
195 1 1 1 1 64.60048952201933 -83.08620004827557 0
196 1 1 1 1 23.75010842907511 -48.32396888934755 0
197 1 1 1 1 -141.7713921654935 -86.77962529267973 0
198 1 1 1 1 6.085114903577221 -104.0895519651448 0
199 1 1 1 1 22.62907249480205 158.9610960666272 0
200 1 1 1 1 101.387234813319 30.1992396259129 0
201 1 1 1 1 30.59453875284657 -149.6235758993737 0
202 1 1 1 1 -15.44539241872792 -39.86085338628553 0
203 1 1 1 1 -2.537023522061304 73.62918754883339 0
204 1 1 1 1 155.0027040619234 -89.52504762907009 0
205 1 1 1 1 -120.0567862042636 -59.99955888254416 0
206 1 1 1 1 1.446134304318292 55.63168256539765 0
207 1 1 1 1 -152.6671579768378 6.106343107836636 0
208 1 1 1 1 55.19035028919487 59.77863253023739 0
209 1 1 1 1 -16.24103885227598 132.732379757419 0
210 1 1 1 1 -4.982897435399821 114.981697951232 0
211 1 1 1 1 54.9535311415745 -47.22251833074918 0
212 1 1 1 1 113.8650775212569 -97.58800447721367 0
213 1 1 1 1 79.14265930621542 -67.32712122019922 0
214 1 1 1 1 98.46349091590702 -46.86884394624308 0
215 1 1 1 1 -91.61816395853404 85.53104269496529 0
216 1 1 1 1 -61.23457675819165 74.63842167245679 0
217 1 1 1 1 -91.4841162173925 -96.33666450333865 0
218 1 1 1 1 -114.3941319149297 -39.33356825365308 0
219 1 1 1 1 -151.4790768986811 -124.505481909043 0
220 1 1 1 1 55.86048760429136 95.9284918071636 0
221 1 1 1 1 -93.5597882227794 133.5467401861218 0
222 1 1 1 1 -62.55424386540153 107.1532952421755 0
223 1 1 1 1 65.93657738749863 -7.029981451109336 0
224 1 1 1 1 -22.02183834868129 -30.65539015195287 0
225 1 1 1 1 32.30535939444479 79.65708007866766 0
226 1 1 1 1 44.22998739850669 31.0807369429277 0
227 1 1 1 1 142.4987007999839 -23.820355116305 0
228 1 1 1 1 90.29818138604969 -142.0348673081871 0
229 1 1 1 1 -134.3668339820642 129.4819209395977 0
230 1 1 1 1 -1.882794913175985 -117.7084345782598 0
231 1 1 1 1 -93.93470115538143 -135.6195811096572 0
232 1 1 1 1 2.534943982491995 -76.30414341344412 0
233 1 1 1 1 -45.74028515750658 -125.4190948168842 0
234 1 1 1 1 -112.0219248264781 16.34789573983096 0
235 1 1 1 1 71.33286193798838 -103.5043090313334 0
236 1 1 1 1 115.8292984534635 -153.6719681547698 0
237 1 1 1 1 -71.0127844438455 -158.7860248290104 0
238 1 1 1 1 73.2322808061619 5.3404105348923 0
239 1 1 1 1 80.19978213605611 36.22758769416311 0
240 1 1 1 1 -49.37637722383926 55.99091353891367 0
241 1 1 1 1 -89.12574216527079 -10.48133634350279 0
242 1 1 1 1 -59.27498005631475 40.59379269210709 0
243 1 1 1 1 120.75535190234 -16.73951995339888 0
244 1 1 1 1 49.99338614948203 -117.8108879911993 0
245 1 1 1 1 109.727948861712 -138.3017810108948 0
246 1 1 1 1 111.3406055819124 -79.47547444612709 0
247 1 1 1 1 64.23233167441214 12.88350092700796 0
248 1 1 1 1 156.5888179733242 -135.1313374936363 0
249 1 1 1 1 -157.1394872412016 103.2736017350194 0
250 1 1 1 1 -99.34345509314326 148.7964557154924 0
251 1 1 1 1 94.26507237912068 2.265575450923649 0
252 1 1 1 1 88.91151259493611 -29.92548192733238 0
253 1 1 1 1 47.28660261999397 -102.4658247382482 0
254 1 1 1 1 43.61796027391475 -39.97087411394847 0
255 1 1 1 1 -65.5075857920487 14.11884274731432 0
256 1 1 1 1 124.2836590065235 -100.9969784423146 0
257 1 1 1 1 -155.5943959815306 -26.64833204137724 0
258 1 1 1 1 89.51817455443199 -104.0843798952296 0
259 1 1 1 1 -50.57509238321522 -113.728729331809 0
260 1 1 1 1 69.36666052684032 63.77843958298055 0
261 1 1 1 1 42.12692059710068 66.34131285814385 0
262 1 1 1 1 36.3483822409074 47.46008197219987 0
263 1 1 1 1 4.5360139282825 120.1064724334525 0
264 1 1 1 1 34.24494745249245 -113.4510047148096 0
265 1 1 1 1 -9.41187856035657 155.7032894678021 0
266 1 1 1 1 25.39537289511458 135.905338091529 0
267 1 1 1 1 -24.7191482737405 -125.5971596207463 0
268 1 1 1 1 39.57453151926458 -144.6423795043625 0
269 1 1 1 1 65.12618595362596 53.90597362863423 0
270 1 1 1 1 8.2142221923134 -150.8829281626985 0
271 1 1 1 1 -86.65439126653897 -21.1573196122558 0
272 1 1 1 1 153.434673337538 -43.39901748216626 0
273 1 1 1 1 87.81124266753264 16.88563089596559 0
274 1 1 1 1 -146.0690355975151 144.2410969795207 0
275 1 1 1 1 41.90694410864975 153.8955762401861 0
276 1 1 1 1 -29.09093378660484 -73.95455289195333 0
277 1 1 1 1 1.123043151486883 149.0985808063111 0
278 1 1 1 1 -32.25004628721479 95.02792063356804 0
279 1 1 1 1 -67.10464094020217 -90.59472396422549 0
280 1 1 1 1 -38.05392278609524 50.99037958251671 0
281 1 1 1 1 -137.3061118494761 -111.166724146473 0
282 1 1 1 1 48.57256832322892 -31.14980730402584 0
283 1 1 1 1 -8.317987203822526 -48.26642785373525 0
284 1 1 1 1 139.9206598811036 -3.339212433546066 0
285 1 1 1 1 12.6877152298722 126.4833170339907 0
286 1 1 1 1 -17.07678533641905 120.6510045665126 0
287 1 1 1 1 -89.55882431136601 54.85733474600747 0
288 1 1 1 1 -36.47871647276943 22.89346967210633 0
289 1 1 1 1 8.256630384470384 -135.6723585785258 0
290 1 1 1 1 -9.766710860823764 -92.55535921001427 0
291 1 1 1 1 -146.7279745355204 -57.01478400952176 0
292 1 1 1 1 -143.2598571400075 33.6373697601172 0
293 1 1 1 1 -21.64620967540992 111.26414983598 0
294 1 1 1 1 -14.70110206107159 -155.0708736665853 0
295 1 1 1 1 119.3818075030719 49.98449527811164 0
296 1 1 1 1 -83.3884658759181 144.791610141843 0
297 1 1 1 1 58.9497763146328 -139.2282926914786 0
298 1 1 1 1 -78.89950640007015 32.15646568785419 0
299 1 1 1 1 100.6781380037297 -142.68362869632 0
300 1 1 1 1 -118.2365851714349 109.5826591860524 0
301 1 1 1 1 37.87067818492335 10.01209935393857 0
302 1 1 1 1 -80.54696672092845 -65.57485592016133 0
303 1 1 1 1 122.1665993864983 -4.239761658131783 0
304 1 1 1 1 21.66090563812776 -123.1670268905909 0
305 1 1 1 1 -108.2087314803728 110.3592058354365 0
306 1 1 1 1 -49.38265174527186 30.60003140318389 0
307 1 1 1 1 113.6608908493233 33.49505675174009 0
308 1 1 1 1 -57.28436015217497 -120.6544731033029 0
309 1 1 1 1 70.81707013970265 -19.08893221400376 0
310 1 1 1 1 -119.4445730745572 28.74356739516455 0
311 1 1 1 1 -148.4581393376448 -95.94172274848418 0
312 1 1 1 1 159.1951976730654 26.24959242990775 0
313 1 1 1 1 -66.11959088446187 137.263827805797 0
314 1 1 1 1 28.11888201477967 -75.47595385261772 0
315 1 1 1 1 -62.30774420882135 -41.07053544826161 0
316 1 1 1 1 97.97221214509068 80.52492930601295 0
317 1 1 1 1 -16.40407717621699 65.38028748285109 0
318 1 1 1 1 -103.4627542168508 -34.84828060583602 0
319 1 1 1 1 -2.844812382625207 -131.7844220025021 0
320 1 1 1 1 -96.4507190227436 -151.8476045507775 0
321 1 1 1 1 127.75070386111 -135.7769978373429 0
322 1 1 1 1 -38.32432124247529 157.6642795727417 0
323 1 1 1 1 19.50360163902246 89.71632745256591 0
324 1 1 1 1 -4.097949096504408 -25.60206335672294 0
325 1 1 1 1 -99.69011210674608 59.44220773521511 0
326 1 1 1 1 -46.332995411314 151.7480409264292 0
327 1 1 1 1 -87.16872373687903 -113.4708370652046 0
328 1 1 1 1 -9.440743631293117 104.6835207463322 0
329 1 1 1 1 -12.81384605623731 84.43926978125756 0
330 1 1 1 1 -119.4517171689847 -81.83466777312773 0
331 1 1 1 1 -134.6106934533379 -63.08534249037486 0
332 1 1 1 1 55.17155165885626 -157.3174145519899 0
333 1 1 1 1 154.4287325776273 132.3966799493221 0
334 1 1 1 1 11.84227738897303 -42.88532906571064 0
335 1 1 1 1 93.00383794867162 46.42508770733644 0
336 1 1 1 1 51.3914738971516 -131.3181763432121 0
337 1 1 1 1 -126.414826134423 -35.5605111376882 0
338 1 1 1 1 17.88806756050417 11.7658630215885 0
339 1 1 1 1 -35.00464040419016 62.80642659235295 0
340 1 1 1 1 -18.87788146916122 76.67582800241493 0
341 1 1 1 1 47.86657756111325 138.0630447977314 0
342 1 1 1 1 134.1560013619752 84.80164745540574 0
343 1 1 1 1 159.5265622687379 -115.3122132210869 0
344 1 1 1 1 -137.4265456820163 -136.4906706047605 0
345 1 1 1 1 -129.6745867336867 109.3557843794719 0
346 1 1 1 1 -49.05763796525498 -46.83270813855839 0
347 1 1 1 1 72.20561455835806 -151.7037463090336 0
348 1 1 1 1 -12.31319896092333 -69.98359278822036 0
349 1 1 1 1 -150.7308204230725 123.0982061789742 0
350 1 1 1 1 -131.5205693368391 -100.8302111109093 0
351 1 1 1 1 8.592600285386993 -26.52722620580545 0
352 1 1 1 1 146.366376424534 147.0305941919303 0
353 1 1 1 1 0.9616624163055292 45.87453588772337 0
354 1 1 1 1 -124.4013847784208 82.57973060259474 0
355 1 1 1 1 112.6226468119346 110.1599550622171 0
356 1 1 1 1 -17.80858961723931 -133.1920147694526 0
357 1 1 1 1 154.9204940431734 -156.8406478851461 0
358 1 1 1 1 -79.09072573541917 -88.36810549519188 0
359 1 1 1 1 -144.7879698471166 -156.7448139962318 0
360 1 1 1 1 -70.93499812899137 44.79186211485194 0
361 1 1 1 1 -65.69854670051065 -73.71049562910355 0
362 1 1 1 1 140.1691338100328 -100.6782321127033 0
363 1 1 1 1 -18.52764459943495 -100.698353299941 0
364 1 1 1 1 -77.8684832150476 -34.74228384503405 0
365 1 1 1 1 -131.7796334171168 58.7873074629241 0
366 1 1 1 1 -121.4717194055285 -156.5763189938643 0
367 1 1 1 1 18.50409718877134 1.961961225035111 0
368 1 1 1 1 1.849403772757256 103.9547399632742 0
369 1 1 1 1 -69.80957179416225 -102.8816534472038 0
370 1 1 1 1 145.6839211322198 -134.1587495001348 0
371 1 1 1 1 -133.2690537402428 38.1231460543703 0
372 1 1 1 1 -125.4995517457304 -133.0294235403018 0
373 1 1 1 1 147.7032135790508 73.62641847688326 0
374 1 1 1 1 -67.84419863207951 -59.38648883496121 0
375 1 1 1 1 121.1715124210596 -78.52775818861538 0
376 1 1 1 1 -159.6694615495249 -7.651482239326441 0
377 1 1 1 1 50.25290528791339 109.8634284542472 0
378 1 1 1 1 -43.40304644575106 125.5276573683752 0
379 1 1 1 1 -121.9285321046353 128.2375088229546 0
380 1 1 1 1 40.13932105965853 -77.39851222980128 0
381 1 1 1 1 -92.24917284848442 105.6500883719358 0
382 1 1 1 1 -83.16955066841277 42.11863848005126 0
383 1 1 1 1 -131.0688909776644 -118.7276850744717 0
384 1 1 1 1 -60.38525361402651 95.67130891570974 0
385 1 1 1 1 -77.05019979176416 -55.41418084275996 0
386 1 1 1 1 159.3229690319687 -21.21928339040736 0
387 1 1 1 1 156.7062252117574 -11.23595810821683 0
388 1 1 1 1 75.06720449611862 45.05843969467989 0
389 1 1 1 1 16.63840868934307 148.4530843790563 0
390 1 1 1 1 44.53912187783871 79.52650242872119 0
391 1 1 1 1 98.69163411396539 -118.1782961928358 0
392 1 1 1 1 -82.25691975334364 132.4300400789146 0
393 1 1 1 1 100.2540305040178 98.40392692577029 0
394 1 1 1 1 -29.45600350484241 119.9192383693963 0
395 1 1 1 1 -147.973167524575 -112.7991982729807 0
396 1 1 1 1 -40.80039475028497 38.09268311215067 0
397 1 1 1 1 -10.38398301909132 53.42161382207206 0
398 1 1 1 1 -134.0106924983253 159.4923387490904 0
399 1 1 1 1 -98.06113352838065 -123.5309563330604 0
400 1 1 1 1 -111.6070632415526 -143.2028915669972 0
401 1 1 1 1 130.0033267077382 98.27516853315393 0
402 1 1 1 1 58.03512156521802 117.4845759997083 0
403 1 1 1 1 34.09419144014964 33.26327714549805 0
404 1 1 1 1 -118.3225063767152 49.66441191191541 0
405 1 1 1 1 83.75355606167739 -83.0450160630119 0
406 1 1 1 1 3.167481005794883 -49.98780690020979 0
407 1 1 1 1 86.31211038629942 96.91727565837567 0
408 1 1 1 1 119.3867191278194 -118.9660995694444 0
409 1 1 1 1 77.42855541708167 154.521851494717 0
410 1 1 1 1 45.05046542459075 96.4258250250216 0
411 1 1 1 1 5.478570230536519 -85.72799300917279 0
412 1 1 1 1 40.94781663420886 -62.71824319286299 0
413 1 1 1 1 -56.84560347753259 -80.50424117433633 0
414 1 1 1 1 112.460450223037 -126.5165082416133 0
415 1 1 1 1 -27.65065030343544 -115.4236251764074 0
416 1 1 1 1 -116.0940788832283 -24.22644021574015 0
417 1 1 1 1 70.18840551074416 114.3361067043938 0
418 1 1 1 1 -70.33835668061002 -15.56420440563147 0
419 1 1 1 1 128.1436519635409 119.0354019810939 0
420 1 1 1 1 26.38075580455123 -22.93363262756597 0
421 1 1 1 1 -158.4075632923951 -97.75474756492741 0
422 1 1 1 1 79.8215906406943 23.26025385357295 0
423 1 1 1 1 -150.4122391923045 -11.99070069049509 0
424 1 1 1 1 13.8124952061452 37.03229715617195 0
425 1 1 1 1 23.98071272888529 98.94930678955023 0
426 1 1 1 1 43.23998754922823 121.6703927099466 0
427 1 1 1 1 -42.05540167511171 -66.32750013019833 0
428 1 1 1 1 6.930980292247 67.93990260717734 0
429 1 1 1 1 -71.85215147196669 3.01074606040396 0
430 1 1 1 1 -29.42491668866282 -143.8927585089754 0
431 1 1 1 1 -32.49337710430716 -39.28333839023696 0
432 1 1 1 1 -58.20519924972263 85.2774862899935 0
433 1 1 1 1 137.8351146080473 -73.90643607938607 0
434 1 1 1 1 18.42810085475577 23.53954642467048 0
435 1 1 1 1 40.38685732391093 -128.773562247653 0
436 1 1 1 1 -74.90974686469521 60.63835621685422 0
437 1 1 1 1 78.55946583941267 -30.9098789330647 0
438 1 1 1 1 -127.5453513979915 67.91833740712178 0
439 1 1 1 1 -4.344136381540437 63.72690093213328 0
440 1 1 1 1 -58.29838388780871 -49.92538342848309 0
441 1 1 1 1 105.8404374094163 -110.9052988280281 0
442 1 1 1 1 -113.5445462655694 -52.90222947693017 0
443 1 1 1 1 -108.5554744564929 69.19625807347887 0
444 1 1 1 1 111.0761331463022 1.080835083696996 0
445 1 1 1 1 52.52826100610409 -63.01418369821882 0
446 1 1 1 1 142.6029711956452 -37.14744256686785 0
447 1 1 1 1 -74.54710082294554 159.960252023764 0
448 1 1 1 1 141.7997858330415 37.56234016798885 0
449 1 1 1 1 72.37522825844079 145.3890254797476 0
450 1 1 1 1 75.72710552156397 98.98815008181765 0
451 1 1 1 1 -33.19700246953798 -16.65728687527323 0
452 1 1 1 1 -102.7477323629291 -87.06578821991833 0
453 1 1 1 1 -1.713008605789128 -59.19133153005838 0
454 1 1 1 1 157.7540344439931 -56.26838298200482 0
455 1 1 1 1 -47.91663817369511 80.23305355367202 0
456 1 1 1 1 84.64990093135154 3.268426817944828 0
457 1 1 1 1 -76.4640859505003 -149.413810109595 0
458 1 1 1 1 -111.5155002073206 150.8106597544256 0
459 1 1 1 1 -157.651234638834 23.40230549886141 0
460 1 1 1 1 48.6322626466374 -83.67487590431583 0
461 1 1 1 1 149.2516530087394 20.73159528532358 0
462 1 1 1 1 -147.3350683278819 92.20486612597858 0
463 1 1 1 1 -87.66586531990586 -159.6432543192299 0
464 1 1 1 1 59.42930311223569 144.6600124974506 0
465 1 1 1 1 -99.18415884265926 -65.25974738616557 0
466 1 1 1 1 44.46330251789814 21.00207007255483 0
467 1 1 1 1 -61.57165146406321 -0.8165508529141619 0
468 1 1 1 1 13.15868355486509 -14.90069936968587 0
469 1 1 1 1 112.9503519519017 89.0643899776646 0
470 1 1 1 1 -159.157825239839 88.3858519873219 0
471 1 1 1 1 73.35891662252646 -58.99067782938855 0
472 1 1 1 1 -77.69128049489427 101.2648545047928 0
473 1 1 1 1 -36.04214176038096 134.6921612175207 0
474 1 1 1 1 147.0707848098941 -83.57947734515456 0
475 1 1 1 1 -62.888768652312 -25.81366458659642 0
476 1 1 1 1 -120.742066605118 10.83580297709332 0
477 1 1 1 1 156.5646991154561 89.7462193837892 0
478 1 1 1 1 -63.09487384555499 -131.5943340546744 0
479 1 1 1 1 -89.43046568200842 -42.49845571095503 0
480 1 1 1 1 -99.76978700598789 -104.5618331173847 0
481 1 1 1 1 102.3902151184269 -10.29822469908106 0
482 1 1 1 1 -57.62718014596655 -68.40070629562075 0
483 1 1 1 1 -81.28641352338086 17.56556194427048 0
484 1 1 1 1 153.5166786885998 -0.231356491731816 0
485 1 1 1 1 20.38600169166585 -83.65260929837319 0
486 1 1 1 1 131.1966789383834 -18.05054764149321 0
487 1 1 1 1 159.4613600910303 100.6417945415523 0
488 1 1 1 1 -101.3289898339445 83.33752457806031 0
489 1 1 1 1 105.2823971035509 154.9311506876111 0
490 1 1 1 1 -125.3187558706713 -10.8115277398139 0
491 1 1 1 1 139.688775256622 -159.9689757799441 0
492 1 1 1 1 124.0284134858819 89.68307518605405 0
493 1 1 1 1 110.0325540358166 -41.73844636245917 0
494 1 1 1 1 -88.65554803985486 159.0757295548148 0
495 1 1 1 1 -40.55107908325496 99.89983223967511 0
496 1 1 1 1 -159.8725183824794 -85.97794593416559 0
497 1 1 1 1 59.81980743098202 45.03768637979454 0
498 1 1 1 1 16.36375377645265 -142.8116677088266 0
499 1 1 1 1 81.679439831487 58.90682282707735 0
500 1 1 1 1 -38.06580005508771 112.7690520504174 0
501 1 1 1 1 17.56223259030148 -105.0699826290922 0
502 1 1 1 1 122.7494688082193 107.6055091684522 0
503 1 1 1 1 148.1766677959706 -54.97624076331704 0
504 1 1 1 1 86.3249821893387 146.7534793361715 0
505 1 1 1 1 -130.2990853778755 21.00431989633756 0
506 1 1 1 1 -146.5405995362455 155.1632844986565 0
507 1 1 1 1 -130.6896633051055 -72.42326278241073 0
508 1 1 1 1 38.78060379867992 -1.597633330303779 0
509 1 1 1 1 -141.8795658259175 57.85473096251809 0
510 1 1 1 1 79.25606194359864 -109.6567054303578 0
511 1 1 1 1 -39.8699767204634 -86.90910342027462 0
512 1 1 1 1 33.14761584337094 -84.98946254916852 0
513 1 1 1 1 80.40692450542949 124.7492361389523 0
514 1 1 1 1 -133.2053548318684 5.110291853279961 0
515 1 1 1 1 120.4721746280228 -142.1716446869968 0
516 1 1 1 1 -21.45446697044429 -60.34910526132222 0
517 1 1 1 1 -91.98517870459042 -32.01612643977566 0
518 1 1 1 1 153.9686362067516 -31.75728912360967 0
519 1 1 1 1 106.3933473635861 140.5267263797339 0
520 1 1 1 1 -46.46264196667836 13.76050074521919 0
521 1 1 1 1 -136.1491676212787 98.46105449663861 0
522 1 1 1 1 105.8643669777001 -89.46982849109233 0
523 1 1 1 1 -44.94896149766151 -6.278465055326024 0
524 1 1 1 1 -100.7380314746703 13.63032994125405 0
525 1 1 1 1 59.86347073848631 80.88998159645982 0
526 1 1 1 1 -118.72821723391 -121.9773311544997 0
527 1 1 1 1 125.9611498601746 -157.981106867415 0
528 1 1 1 1 -126.7300533627734 -48.01805993247193 0
529 1 1 1 1 90.2235504109922 114.78954758643 0
530 1 1 1 1 -141.0963130413009 -15.01695615770751 0
531 1 1 1 1 126.3485445376035 76.70705762025196 0
532 1 1 1 1 -28.63299007256754 -153.616939101227 0
533 1 1 1 1 -31.02629904973949 -95.51017831543035 0
534 1 1 1 1 -113.4361751189738 139.7135416601137 0
535 1 1 1 1 -159.6871013891346 66.59617265875565 0
536 1 1 1 1 -6.989038396138824 93.93702036081675 0
537 1 1 1 1 -87.47616698628801 -52.80840247906153 0
538 1 1 1 1 -44.0949323580854 65.99528117504559 0
539 1 1 1 1 12.71806258912477 158.4846420671936 0
540 1 1 1 1 -1.398508975741066 -37.08676207747263 0
541 1 1 1 1 -159.9547743333034 -39.283129943901 0
542 1 1 1 1 60.47654079703267 -110.1475570851294 0
543 1 1 1 1 -112.4538123401695 59.62887814279836 0
544 1 1 1 1 90.99497537306866 72.01483373931814 0
545 1 1 1 1 109.2671045362646 -67.75072849316612 0
546 1 1 1 1 157.4491213841429 147.9135345429397 0
547 1 1 1 1 26.70802372406126 -132.7719030483551 0
548 1 1 1 1 -26.40628876003004 138.7696756189869 0
549 1 1 1 1 151.1245865747218 -121.6909454984202 0
550 1 1 1 1 90.75874856654792 -131.7858966551219 0
551 1 1 1 1 68.10607491088035 -130.0121300028905 0
552 1 1 1 1 -143.4717563641825 22.89690371011264 0
553 1 1 1 1 -55.11094644513253 -10.22205507979518 0
554 1 1 1 1 34.17812653105079 -101.7143497119883 0
555 1 1 1 1 107.7105743262724 53.29037668795769 0
556 1 1 1 1 -59.62870490159347 144.4645762485507 0
557 1 1 1 1 -18.20086943307049 -84.41576296251078 0
558 1 1 1 1 108.0129480832084 -52.30567855043105 0
559 1 1 1 1 18.85903066877398 -66.69210968501993 0
560 1 1 1 1 44.91128980710636 54.56987295682094 0
561 1 1 1 1 -5.385579125919151 124.8346805376302 0
562 1 1 1 1 -104.4766282072726 157.5071772427696 0
563 1 1 1 1 -151.6244274559267 43.63126269508027 0
564 1 1 1 1 82.49974310127132 -159.4209198477482 0
565 1 1 1 1 64.18670105495414 -72.54069370576775 0
566 1 1 1 1 -42.97718502980277 -105.6118023497867 0
567 1 1 1 1 156.7443000335397 121.1144184285678 0
568 1 1 1 1 -136.3756460103784 119.5992474706975 0
569 1 1 1 1 78.20514347697778 -124.210100886834 0
570 1 1 1 1 117.0352151065679 -31.19368804842054 0
571 1 1 1 1 -89.06888969575786 -84.68897935496138 0
572 1 1 1 1 37.06196521400398 89.4255278023989 0
573 1 1 1 1 -147.1750102444074 -2.06947982628003 0
574 1 1 1 1 59.20384747884395 -125.435831863976 0
575 1 1 1 1 -147.6205788611884 108.9950862292059 0
576 1 1 1 1 -3.21806579915804 -152.8398540721829 0
577 1 1 1 1 -48.91371076128974 -28.9433632961084 0
578 1 1 1 1 103.7664016566025 71.9929347282652 0
579 1 1 1 1 140.2043035677324 155.1160474372362 0
580 1 1 1 1 -109.180791429564 -61.5796868574181 0
581 1 1 1 1 114.6368879246307 22.58623730512366 0
582 1 1 1 1 3.076516939887881 158.5670484402621 0
583 1 1 1 1 -105.117632407708 -76.50625313241939 0
584 1 1 1 1 -60.58656476033264 51.65440213648674 0
585 1 1 1 1 -44.33917844191718 -17.10047408230028 0
586 1 1 1 1 139.6216787395545 -112.6131237849247 0
587 1 1 1 1 -125.5087441205257 118.0474623496185 0
588 1 1 1 1 126.3590710290285 60.34489239657273 0
589 1 1 1 1 -9.453790030154892 -104.2002385823648 0
590 1 1 1 1 -50.05451330488505 -60.37257878267006 0