

718 atoms
1582 bonds
1 atom types
1 bond types
-160 160 xlo xhi
-160 160 ylo yhi
-32 32 zlo zhi

Atoms #bpm/sphere

1 1 1 1 1 34.6087043849754 -60.66230507664045 0
2 1 1 1 1 152.438991037833 -47.23859449378672 0
3 1 1 1 1 29.9352810412424 -3.879747225432624 0
4 1 1 1 1 -79.58554251972456 -89.21465898524382 0
5 1 1 1 1 -55.02940688372703 -19.30746792960298 0
6 1 1 1 1 -59.77254650604951 68.09811609249232 0
7 1 1 1 1 119.7462768129481 -5.274892648814216 0
8 1 1 1 1 -59.27429490157823 -122.4609955952342 0
9 1 1 1 1 126.9206110625946 120.6488921625839 0
10 1 1 1 1 -7.706022620356407 -92.31495725864332 0
11 1 1 1 1 -125.3514440003717 17.32620832512833 0
12 1 1 1 1 138.3938174354537 9.324953385735597 0
13 1 1 1 1 62.76705573049796 -131.748794665907 0
14 1 1 1 1 119.7944724006545 106.1001065799953 0
15 1 1 1 1 -118.8339360381353 -59.10334137237939 0
16 1 1 1 1 -89.08165735808389 104.0688721380325 0
17 1 1 1 1 104.3574760592673 111.3955762340327 0
18 1 1 1 1 151.473406736398 -65.71578303381645 0
19 1 1 1 1 97.26623367847088 -85.62716838997605 0
20 1 1 1 1 -19.0848832770138 81.92525919758452 0
21 1 1 1 1 -139.1519076480557 -129.8307378578625 0
22 1 1 1 1 -46.86958642658564 -158.4119615818172 0
23 1 1 1 1 -88.47274384269585 151.0736266969732 0
24 1 1 1 1 -45.52631641021947 142.7200145274913 0
25 1 1 1 1 92.35942168810783 93.02046413071884 0
26 1 1 1 1 71.66417000761714 146.7516569097085 0
27 1 1 1 1 -153.9729636729828 -34.73145413733981 0
28 1 1 1 1 -39.2243670346636 150.9219124089743 0
29 1 1 1 1 143.5325259077379 -56.47577447301117 0
30 1 1 1 1 -129.347224866095 53.86973586519684 0
31 1 1 1 1 -90.17641982188302 -24.34657028515957 0
32 1 1 1 1 44.99483418729449 -127.2642043545708 0
33 1 1 1 1 111.9378031780668 -158.4654630807669 0
34 1 1 1 1 -86.333208714439 -109.6039245118712 0
35 1 1 1 1 -15.75068490777514 -7.01574697533124 0
36 1 1 1 1 -40.81277595218879 96.3352158816852 0
37 1 1 1 1 -98.0157138823661 -34.78034991646453 0
38 1 1 1 1 143.3539107212837 -148.1232618704577 0
39 1 1 1 1 99.38104642292649 14.20794344294148 0
40 1 1 1 1 45.91262988509985 -154.0766154710706 0
41 1 1 1 1 24.77343427928639 53.20614837660094 0
42 1 1 1 1 4.857346236241312 32.20614614483389 0
43 1 1 1 1 -95.1163536726921 85.48887057547989 0
44 1 1 1 1 2.320100055706234 91.38533369294865 0
45 1 1 1 1 100.2490965056861 154.8253200230506 0
46 1 1 1 1 -2.808565904779499 43.2483068875149 0
47 1 1 1 1 79.39834408196756 96.86796269073136 0
48 1 1 1 1 88.07758938984787 -150.3078332708378 0
49 1 1 1 1 86.24363933445409 44.37037503262943 0
50 1 1 1 1 55.54213873299122 136.9557856589483 0
51 1 1 1 1 132.4140733950822 -25.02832095459843 0
52 1 1 1 1 -77.42433175096231 75.73894924102296 0
53 1 1 1 1 159.7213777587234 34.41442323376907 0
54 1 1 1 1 138.5956427477232 159.5429752770698 0
55 1 1 1 1 60.72373153982355 76.69604041119837 0
56 1 1 1 1 52.65596411708958 119.9671592362723 0
57 1 1 1 1 131.6691404304598 -66.39952915103461 0
58 1 1 1 1 158.4743228760981 -35.23003559940804 0
59 1 1 1 1 29.45838203122264 -95.41119400107502 0
60 1 1 1 1 53.25688032033833 -78.37858740466106 0
61 1 1 1 1 -112.9386389085527 -48.81483051937629 0
62 1 1 1 1 -120.3736471986681 94.80642424983216 0
63 1 1 1 1 -36.87605574795785 40.63995773007412 0
64 1 1 1 1 89.90222894012828 -2.49331761209973 0
65 1 1 1 1 -62.34037423977298 -70.55436798809612 0
66 1 1 1 1 -94.97469088095784 -152.1758597090392 0
67 1 1 1 1 -29.52958628399244 33.4725005895103 0
68 1 1 1 1 71.02685566827597 -8.582273763705018 0
69 1 1 1 1 43.40562453561378 -85.77870417664265 0
70 1 1 1 1 10.62949042351391 141.8927939819081 0
71 1 1 1 1 132.1004475572335 -112.9496100824468 0
72 1 1 1 1 84.27403798384969 -60.19498398511082 0
73 1 1 1 1 141.8139302867443 117.1008303815667 0
74 1 1 1 1 106.8788933722809 -60.3052917257057 0
75 1 1 1 1 -23.08097356087262 72.6715763850579 0
76 1 1 1 1 7.878661576262232 -34.25614113528525 0
77 1 1 1 1 44.60816155868338 -30.8401120640971 0
78 1 1 1 1 -58.19057707802853 -90.03819362032715 0
79 1 1 1 1 -115.4934599379905 150.2419904775277 0
80 1 1 1 1 128.0618921571617 -144.6121354683922 0
81 1 1 1 1 -102.6061365147988 149.0115501913486 0
82 1 1 1 1 -54.43479049008448 33.5461218926757 0
83 1 1 1 1 -23.54330183536837 109.0699961750622 0
84 1 1 1 1 56.39770893046057 -49.05931578920618 0
85 1 1 1 1 114.5633274064087 55.86863823620152 0
86 1 1 1 1 -140.6866082095484 116.5936402633533 0
87 1 1 1 1 -3.760823032893029 -68.92503403351981 0
88 1 1 1 1 8.276962442771492 -5.697812551903439 0
89 1 1 1 1 3.078539865678096 64.77243797851708 0
90 1 1 1 1 22.69546930235649 -132.1954176998905 0
91 1 1 1 1 -35.53704622868565 -149.7091832562756 0
92 1 1 1 1 72.85873474187559 156.5716020904832 0
93 1 1 1 1 89.02095352216125 116.969536524328 0
94 1 1 1 1 76.90216951733765 -124.3573114382365 0
95 1 1 1 1 -99.39287887775481 111.2752316746418 0
96 1 1 1 1 -125.1455392107346 4.547935559827579 0
97 1 1 1 1 -157.0096343076853 48.22219116594374 0
98 1 1 1 1 78.08156831190925 -88.32765087340266 0
99 1 1 1 1 3.136675933956269 106.5795455089809 0
100 1 1 1 1 -108.3356827275183 -111.7978574531416 0
101 1 1 1 1 95.36178608922623 -24.50299649231553 0
102 1 1 1 1 -103.4566011685143 32.54091753119343 0
103 1 1 1 1 -150.2792185441307 140.3903015432746 0
104 1 1 1 1 157.0434814218706 95.91555673420925 0
105 1 1 1 1 103.9484469891601 129.203802522082 0
106 1 1 1 1 -11.87821502644877 -151.089846642547 0
107 1 1 1 1 -77.16018175420845 34.67239768148653 0
108 1 1 1 1 -74.11911897757773 101.8065907046345 0
109 1 1 1 1 119.5107404878859 -55.77784147082113 0
110 1 1 1 1 3.345633604560362 159.5925797914107 0
111 1 1 1 1 20.66629093030014 -7.608690961800335 0
112 1 1 1 1 -54.91509711198511 -78.89274078446469 0
113 1 1 1 1 153.9986245180505 -117.5819275618382 0
114 1 1 1 1 -23.63847034117268 -103.8546599776296 0
115 1 1 1 1 105.1411122771251 65.19516891007441 0
116 1 1 1 1 -146.7507188595725 -74.83796132843511 0
117 1 1 1 1 35.56317595895479 -115.9704423415661 0
118 1 1 1 1 83.74085428067957 -35.45272451052358 0
119 1 1 1 1 62.43158314691951 57.86126368202019 0
120 1 1 1 1 -157.9532534717076 63.81099044832439 0
121 1 1 1 1 -57.64498251012519 130.8129508583957 0
122 1 1 1 1 34.43305915860174 -26.98964965527625 0
123 1 1 1 1 -159.0863049921053 -20.62061199991675 0
124 1 1 1 1 -63.02280515890708 15.20247487805096 0
125 1 1 1 1 67.9987648732394 113.5519110562601 0
126 1 1 1 1 4.23306944348758 78.2113941874903 0
127 1 1 1 1 -115.0278746816938 -143.1968888487146 0
128 1 1 1 1 24.37379605303988 29.60082818310775 0
129 1 1 1 1 8.6422148499488 7.705873078021227 0
130 1 1 1 1 59.24188826199722 -17.70715410858853 0
131 1 1 1 1 -123.8457187392123 -101.3783632416302 0
132 1 1 1 1 -82.50673823123239 -50.05303944682947 0
133 1 1 1 1 -4.065052791849809 -1.240835258532911 0
134 1 1 1 1 -123.6985825006517 -159.9135752975313 0
135 1 1 1 1 75.43671380165705 -143.1321532692158 0
136 1 1 1 1 -96.42250619356847 -100.2490067156408 0
137 1 1 1 1 -150.9710513802474 -154.0189422870531 0
138 1 1 1 1 11.90915458899099 -123.1360843022879 0
139 1 1 1 1 112.2530149731547 -27.28108989170943 0
140 1 1 1 1 -100.6291569079944 -135.1118573777558 0
141 1 1 1 1 125.0796332549016 85.77194137522073 0
142 1 1 1 1 146.803639917157 -2.855334030300639 0
143 1 1 1 1 116.1238422440252 -66.9451776375605 0
144 1 1 1 1 -100.2562705027922 6.967859678472479 0
145 1 1 1 1 32.37307020162677 126.1735963313442 0
146 1 1 1 1 -73.76018344852764 -34.4572439129535 0
147 1 1 1 1 72.01679889490663 -155.67734237035 0
148 1 1 1 1 11.48359330917685 -74.32148784335681 0
149 1 1 1 1 -130.4841235288185 -30.47294880520195 0
150 1 1 1 1 99.50857228931244 101.1831328081379 0
151 1 1 1 1 -31.28032891187871 56.3324888441216 0
152 1 1 1 1 10.92056999939803 -20.65143867282328 0
153 1 1 1 1 34.70305967372244 -128.0187713908618 0
154 1 1 1 1 -112.1494762098506 -123.8434866048455 0
155 1 1 1 1 97.62685613565554 -123.7910534097221 0
156 1 1 1 1 156.0421894248097 68.48861727025124 0
157 1 1 1 1 -111.4707494561453 40.31978366053525 0
158 1 1 1 1 125.3127931820864 -123.2731496543569 0
159 1 1 1 1 -61.49713798738752 -156.5251243725148 0
160 1 1 1 1 32.4915761582393 61.73575883770823 0
161 1 1 1 1 -84.61135065361134 89.2771256853249 0
162 1 1 1 1 148.2638668821732 13.53434045155225 0
163 1 1 1 1 57.8374673739431 -140.7921430180913 0
164 1 1 1 1 -69.60511581616679 56.06539279207749 0
165 1 1 1 1 -111.7127618568356 9.485588505241111 0
166 1 1 1 1 105.847871470562 -0.1733456084603802 0
167 1 1 1 1 -11.24138684458148 48.24689903099906 0
168 1 1 1 1 143.6193650417454 -35.64641878471051 0
169 1 1 1 1 114.523749954373 -120.3810000219443 0
170 1 1 1 1 -135.9808898986947 -20.54548272394641 0
171 1 1 1 1 -136.4676202514769 45.95859445685181 0
172 1 1 1 1 32.51174860729287 91.0261788042132 0
173 1 1 1 1 146.4207049894583 130.2236592407413 0
174 1 1 1 1 -73.83179030171917 -71.65547964198612 0
175 1 1 1 1 30.27907853015404 38.09479571702909 0
176 1 1 1 1 -73.28733326989959 -52.75851035679075 0
177 1 1 1 1 88.62113933913278 -72.48648523845063 0
178 1 1 1 1 -86.10749778198286 125.9900223515709 0
179 1 1 1 1 -27.76343517973885 6.198863149019246 0
180 1 1 1 1 105.4432122482652 -95.87647259235048 0
181 1 1 1 1 14.47016922844935 31.22331687684806 0
182 1 1 1 1 -111.157562529142 110.3666772906636 0
183 1 1 1 1 -138.8184916258099 -115.7579798564058 0
184 1 1 1 1 44.21230134516875 -141.9244398259458 0
185 1 1 1 1 -79.99990703698025 156.6496984056271 0
186 1 1 1 1 52.54544305356416 14.65203712029847 0
187 1 1 1 1 114.201620185704 39.4819869305573 0
188 1 1 1 1 125.2644175667897 75.22554420604428 0
189 1 1 1 1 110.2384826294851 30.1750085897761 0
190 1 1 1 1 33.5643071666189 149.3117056473995 0
191 1 1 1 1 125.896079011676 18.18832183162186 0
192 1 1 1 1 85.36560878107284 65.87017133453736 0
193 1 1 1 1 147.5100450231441 153.4755732973502 0
194 1 1 1 1 -26.77940834085106 -68.26394712329943 0
195 1 1 1 1 -155.0877092617554 -104.2417630741869 0
196 1 1 1 1 -4.732387123831614 98.914076350892 0
197 1 1 1 1 -159.9117938568312 80.78617067997095 0
198 1 1 1 1 -69.37029963974683 127.7815078733797 0
199 1 1 1 1 -84.17821973130692 46.15717495398559 0
200 1 1 1 1 44.2316367350665 -64.87102293197879 0
201 1 1 1 1 90.6226792866907 21.73413053899478 0
202 1 1 1 1 23.68141645682766 -72.59916958083849 0
203 1 1 1 1 104.949672059712 -36.11597493937893 0
204 1 1 1 1 115.762569012057 -93.00758813240336 0
205 1 1 1 1 63.38478253021384 -35.73959355521396 0
206 1 1 1 1 -140.1801406002015 106.2327584619617 0
207 1 1 1 1 -1.023390351802618 116.3779737254354 0
208 1 1 1 1 -142.5710784020137 153.0404455822107 0
209 1 1 1 1 -6.086354510508897 -53.95023587753425 0
210 1 1 1 1 54.94336611752487 -91.24686265231188 0
211 1 1 1 1 40.67245118209851 133.9039553989935 0
212 1 1 1 1 -10.82743630383533 87.75994211977749 0
213 1 1 1 1 -56.34418723045601 140.6864264764904 0
214 1 1 1 1 -150.1910424016905 159.6410348993484 0
215 1 1 1 1 -109.7726644177328 55.09758172038539 0
216 1 1 1 1 50.80634332277833 84.17006542149352 0
217 1 1 1 1 120.3657540989268 9.822302719949903 0
218 1 1 1 1 -41.05999271101385 111.8273440462513 0
219 1 1 1 1 -12.03564919506348 127.118282236663 0
220 1 1 1 1 -50.37735269115423 8.486289208498732 0
221 1 1 1 1 -55.0298649671355 43.23432022235752 0
222 1 1 1 1 -52.40587275768701 18.49463314176592 0
223 1 1 1 1 82.69343662717779 29.12819256831494 0
224 1 1 1 1 159.3528909521775 158.8169132370238 0
225 1 1 1 1 91.75785286245554 56.93743958543652 0
226 1 1 1 1 -85.6524235600364 -145.5315488209464 0
227 1 1 1 1 -62.75355708076425 -136.7411063249679 0
228 1 1 1 1 132.4129696439267 26.61106700732066 0
229 1 1 1 1 -142.8021682098025 5.178212864291083 0
230 1 1 1 1 78.73645042143738 56.92495306207422 0
231 1 1 1 1 135.2362908326257 -51.39360225190138 0
232 1 1 1 1 73.43120620308352 81.85054506030377 0
233 1 1 1 1 -135.9394011319749 -66.98589952804372 0
234 1 1 1 1 -125.446268698693 -18.41901088575244 0
235 1 1 1 1 -48.57782803922288 -30.07918602328456 0
236 1 1 1 1 -154.0826771410345 -119.7525449541221 0
237 1 1 1 1 -158.08944099047 -53.46760066534361 0
238 1 1 1 1 56.65482926878985 108.6795516077756 0
239 1 1 1 1 -94.77143523883373 -82.92078774931244 0
240 1 1 1 1 13.06589043875576 67.63110854472279 0
241 1 1 1 1 -145.8735777129608 -65.05496962187638 0
242 1 1 1 1 159.4425005669465 -94.31603461879114 0
243 1 1 1 1 -115.6589386354453 22.3019138182658 0
244 1 1 1 1 20.59796465810621 159.8954288077761 0
245 1 1 1 1 146.4510048025913 34.51255598301901 0
246 1 1 1 1 -127.3845471391027 -72.93401056782649 0
247 1 1 1 1 67.59619316757704 -74.64681942427461 0
248 1 1 1 1 82.72702089296627 76.38355951395371 0
249 1 1 1 1 129.6868940817179 60.27364083637173 0
250 1 1 1 1 -11.46473958038354 -38.88039984108784 0
251 1 1 1 1 -79.85138415230995 110.7584119690659 0
252 1 1 1 1 18.01622829152325 -84.22314935072414 0
253 1 1 1 1 102.933043387759 45.52930380716964 0
254 1 1 1 1 60.25760759040554 41.91907156705605 0
255 1 1 1 1 83.86169488302727 -20.28420472516513 0
256 1 1 1 1 -45.09170131480528 52.36389946006119 0
257 1 1 1 1 81.86262890745581 -106.2561775820597 0
258 1 1 1 1 108.9452497571732 -105.2739677067531 0
259 1 1 1 1 -125.275655900716 -123.2682945391371 0
260 1 1 1 1 118.6518388429888 -102.3231561656016 0
261 1 1 1 1 114.9780031129767 114.8988830608549 0
262 1 1 1 1 -76.71211603005013 -132.7373177398364 0
263 1 1 1 1 69.06846573096414 -107.463347113368 0
264 1 1 1 1 -123.7314495429992 33.7728088485984 0
265 1 1 1 1 109.4141652701285 75.10604882418417 0
266 1 1 1 1 -128.9860323496756 -143.0108207167171 0
267 1 1 1 1 105.6760558386256 -78.98607368028092 0
268 1 1 1 1 32.89433558876783 -154.2893216545738 0
269 1 1 1 1 128.2669805497674 131.4543329149395 0
270 1 1 1 1 65.35630583649595 4.553465137115182 0
271 1 1 1 1 -143.7350847328182 -53.72856113579249 0
272 1 1 1 1 -29.25803553202016 141.5903339218476 0
273 1 1 1 1 -104.5732807616058 -62.0412439113822 0
274 1 1 1 1 96.98177339348098 -154.4387722594718 0
275 1 1 1 1 -88.8640243878869 -128.5812269219001 0
276 1 1 1 1 -64.52610228173931 108.6135614676305 0
277 1 1 1 1 -102.6325653291528 -7.373897247181162 0
278 1 1 1 1 -35.29163449325587 -23.05544996084046 0
279 1 1 1 1 -104.3813403830385 -23.41915980857908 0
280 1 1 1 1 -72.90970141173017 -149.61352339333 0
281 1 1 1 1 -4.332081905830449 25.27037671783978 0
282 1 1 1 1 -139.1322051173508 92.85994561231297 0
283 1 1 1 1 -123.1271219896877 116.9920823374784 0
284 1 1 1 1 155.1247388216137 44.5270455225436 0
285 1 1 1 1 32.40129188597649 79.96344206308805 0
286 1 1 1 1 -94.70875387388041 137.8434535802812 0
287 1 1 1 1 -126.9926593276492 131.1335644856125 0
288 1 1 1 1 154.5560885180835 -22.75364899843819 0
289 1 1 1 1 -84.58286497229118 -2.263157066557426 0
290 1 1 1 1 -10.09298677868176 34.50268642748318 0
291 1 1 1 1 53.0909302573676 -1.668968769198642 0
292 1 1 1 1 127.8716022969032 149.3538570370989 0
293 1 1 1 1 -17.74686913423849 59.77527169509116 0
294 1 1 1 1 14.2139395005087 -97.75995166853232 0
295 1 1 1 1 -70.71010917911345 5.357983330876607 0
296 1 1 1 1 82.51187045152056 4.606527260978226 0
297 1 1 1 1 28.60432075012608 20.07367172598885 0
298 1 1 1 1 -101.7745622600428 64.58031175704261 0
299 1 1 1 1 -159.2672966819012 33.61040839881088 0
300 1 1 1 1 136.3264901924629 -77.18527487021899 0
301 1 1 1 1 94.72657912008992 -54.84235084269109 0
302 1 1 1 1 -46.10800258645888 -97.11838959257346 0
303 1 1 1 1 84.3050394602665 146.6987875459105 0
304 1 1 1 1 76.59996598890771 -71.21372235229802 0
305 1 1 1 1 157.5779422818243 111.4415605933904 0
306 1 1 1 1 45.68737304464716 -15.70280339968988 0
307 1 1 1 1 -70.86637462996566 151.814904159782 0
308 1 1 1 1 -80.4088471274346 -24.58642006742969 0
309 1 1 1 1 114.2819983169653 17.56014917239244 0
310 1 1 1 1 -15.86858499013272 19.78145648559089 0
311 1 1 1 1 0.2980059112994411 -105.603329671904 0
312 1 1 1 1 97.54189810694362 137.0691103578407 0
313 1 1 1 1 -89.14939950068484 -159.9597189077621 0
314 1 1 1 1 1.352312966359875 -138.5671000543424 0
315 1 1 1 1 -144.0747119223856 24.80400854733705 0
316 1 1 1 1 -35.24252271195064 77.08122762012522 0
317 1 1 1 1 158.1843813126515 146.1534565653865 0
318 1 1 1 1 122.9031357820862 29.29480911563516 0
319 1 1 1 1 133.1700549924017 47.82849549103136 0
320 1 1 1 1 116.2455915248915 95.51020171724667 0
321 1 1 1 1 -110.6449760256155 -82.03502743880239 0
322 1 1 1 1 -134.3489019113397 67.32566660364373 0
323 1 1 1 1 -16.68826592325391 136.3784489840244 0
324 1 1 1 1 125.6720054585798 98.39867279878297 0
325 1 1 1 1 -153.215065141911 -88.39516754496688 0
326 1 1 1 1 144.6560841091638 -126.130695902911 0
327 1 1 1 1 158.822346817964 126.6672435886828 0
328 1 1 1 1 53.71028041651257 -26.94058971825282 0
329 1 1 1 1 -78.09221649397713 62.10906649059567 0
330 1 1 1 1 104.6398927383444 87.67226679997248 0
331 1 1 1 1 -132.65365268243 -3.875085310251023 0
332 1 1 1 1 -25.69575726187568 -92.62637997113451 0
333 1 1 1 1 137.9162803489968 -88.66501923400205 0
334 1 1 1 1 -50.14264829528059 -117.9284378563927 0
335 1 1 1 1 -30.15414666861432 -118.1445210019702 0
336 1 1 1 1 -22.98782450661363 151.9767175095729 0
337 1 1 1 1 -140.235860828144 -33.05875547470301 0
338 1 1 1 1 18.44043340511291 118.6604932540988 0
339 1 1 1 1 41.81392870671988 104.0527935141394 0
340 1 1 1 1 -152.9772738925458 20.45939144594203 0
341 1 1 1 1 20.20157691630149 147.2044803859602 0
342 1 1 1 1 -12.10375128366539 -123.005756058174 0
343 1 1 1 1 48.09443570673079 146.0721180573122 0
344 1 1 1 1 70.98272605482035 44.76753615406182 0
345 1 1 1 1 -117.2865319685207 -71.47768577118742 0
346 1 1 1 1 -134.8064819253146 137.0379825617371 0
347 1 1 1 1 57.92749759663249 -112.0564485441665 0
348 1 1 1 1 -1.587653346350322 150.9154692912499 0
349 1 1 1 1 -125.1732260249538 158.1544012075007 0
350 1 1 1 1 -136.341738087503 -86.81093898776332 0
351 1 1 1 1 -109.2072860311407 134.3615728459124 0
352 1 1 1 1 33.46868520216827 -37.18551291071324 0
353 1 1 1 1 54.46998949451847 -125.0075796042136 0
354 1 1 1 1 83.18993371279595 156.3040515410274 0
355 1 1 1 1 23.2054040659217 -145.2272026406632 0
356 1 1 1 1 -12.296104427171 111.4764681262164 0
357 1 1 1 1 31.25061522962923 109.2811561681847 0
358 1 1 1 1 -18.87788566926872 -59.08716649199306 0
359 1 1 1 1 -58.45444682932293 -0.9259501503246099 0
360 1 1 1 1 6.657510154991286 -158.1795262704019 0
361 1 1 1 1 64.42241809139455 130.2241548962595 0
362 1 1 1 1 -148.9165592495368 75.03602615373552 0
363 1 1 1 1 -155.0996328770802 -1.894914585464136 0
364 1 1 1 1 -105.982201055502 82.58326077431747 0
365 1 1 1 1 -86.40312784596169 -13.56293174918849 0
366 1 1 1 1 -67.68046825380317 87.60756421072989 0
367 1 1 1 1 11.62106950546021 -135.5332588217 0
368 1 1 1 1 158.7138438105211 6.49280029614016 0
369 1 1 1 1 0.291674799528721 -40.38380782125881 0
370 1 1 1 1 116.0664219905003 -43.74222226353936 0
371 1 1 1 1 131.708303118986 -157.9336214786491 0
372 1 1 1 1 5.741668514784067 21.15560867231221 0
373 1 1 1 1 4.6063874937619 -89.22830564140469 0
374 1 1 1 1 67.67136214074549 15.62555509703205 0
375 1 1 1 1 -42.55945585211208 -131.7955148834934 0
376 1 1 1 1 109.3680423107619 -144.4368400215116 0
377 1 1 1 1 -1.976972359517674 -117.8862605024049 0
378 1 1 1 1 -35.36571464067546 -74.22982308635315 0
379 1 1 1 1 -3.931704775746198 -17.38167393638184 0
380 1 1 1 1 -18.53687703982314 -75.58792316743788 0
381 1 1 1 1 37.43577264812467 -46.94213994612916 0
382 1 1 1 1 -32.0188759913849 92.06929379297259 0
383 1 1 1 1 9.612168762745767 126.496733852824 0
384 1 1 1 1 -1.829858848454251 13.26005267484464 0
385 1 1 1 1 154.0824060865799 -81.10465767497594 0
386 1 1 1 1 66.8221401609444 -25.01558075954046 0
387 1 1 1 1 45.96129493593088 -114.9259593522274 0
388 1 1 1 1 -67.66206933881534 -15.48748584127532 0
389 1 1 1 1 9.923726051445527 46.17414174058152 0
390 1 1 1 1 134.1345088842189 89.23441680930443 0
391 1 1 1 1 15.69954338399742 83.86735444184546 0
392 1 1 1 1 116.0787210008156 -134.0536501478892 0
393 1 1 1 1 46.42227040226879 31.76848741229821 0
394 1 1 1 1 -19.89350297979871 -25.99098528307115 0
395 1 1 1 1 57.24031692174904 153.8144043558767 0
396 1 1 1 1 42.4100331061361 89.95878222304438 0
397 1 1 1 1 43.68836057345649 -99.77906152053438 0
398 1 1 1 1 -51.68992577763365 -137.9895626117747 0
399 1 1 1 1 -136.5179101622429 33.81322940938961 0
400 1 1 1 1 -26.92309311062968 -42.92484383251193 0
401 1 1 1 1 -75.84667177662158 -122.7548029912231 0
402 1 1 1 1 -96.90812634316238 54.52898929084083 0
403 1 1 1 1 21.85162656822371 -159.0703823383077 0
404 1 1 1 1 -128.9189579651867 86.31768138839584 0
405 1 1 1 1 137.6643986753147 140.8069858122797 0
406 1 1 1 1 -106.3889345124301 -153.2129787962479 0
407 1 1 1 1 -15.0543989909782 6.027125110699842 0
408 1 1 1 1 -150.4841082415465 -11.69329422167922 0
409 1 1 1 1 79.35367199890595 130.3412938843431 0
410 1 1 1 1 -143.9014131865855 -96.03821544306733 0
411 1 1 1 1 105.8438157230591 -114.6778704986096 0
412 1 1 1 1 -32.61981983799195 157.9307332681468 0
413 1 1 1 1 -48.3481390260237 -53.43608100284871 0
414 1 1 1 1 -68.21633461093818 -94.36632580890972 0
415 1 1 1 1 -91.53373565537748 24.44029997491134 0
416 1 1 1 1 -45.40075275590304 -9.945647588209425 0
417 1 1 1 1 -29.54577671468942 15.7360107776687 0
418 1 1 1 1 100.0754954071911 -137.5974681293931 0
419 1 1 1 1 -125.6314111702435 73.74873157137466 0
420 1 1 1 1 -127.7439129868045 -50.29744332211212 0
421 1 1 1 1 51.05230820190738 51.97741948622956 0
422 1 1 1 1 -99.7352867846642 16.59867524765104 0
423 1 1 1 1 116.1926315588136 -78.47043161802037 0
424 1 1 1 1 144.6987640244046 103.5343952130299 0
425 1 1 1 1 -132.4818603672772 -152.5377138624472 0
426 1 1 1 1 -92.1918938019532 -51.56244736792087 0
427 1 1 1 1 -86.76886406723561 -64.29842715458371 0
428 1 1 1 1 37.48460664087503 7.423601557096447 0
429 1 1 1 1 -67.75476719238952 73.83134629196155 0
430 1 1 1 1 -59.41682938302876 -47.47352727067582 0
431 1 1 1 1 -156.9410779347924 -77.89321418360913 0
432 1 1 1 1 13.98768121755143 -59.33090872019974 0
433 1 1 1 1 20.35698245679464 -40.32080042204615 0
434 1 1 1 1 -41.8057862468365 -65.25288505317015 0
435 1 1 1 1 -126.47691541701 143.9884862730471 0
436 1 1 1 1 16.17608654126775 108.8413840441876 0
437 1 1 1 1 -158.2474822449655 116.8882444611625 0
438 1 1 1 1 -120.9036842582008 -111.7717315396472 0
439 1 1 1 1 -79.01080090938666 24.58972967071014 0
440 1 1 1 1 -153.6230402503784 -129.4672402297086 0
441 1 1 1 1 -22.67885299388121 97.7104436452795 0
442 1 1 1 1 65.36700378791321 -86.99048322265611 0
443 1 1 1 1 -118.6369899793338 -26.08996523642395 0
444 1 1 1 1 -60.88628879506786 153.2480355300454 0
445 1 1 1 1 -10.64765504704383 -111.739811090949 0
446 1 1 1 1 131.2707607681674 -6.749203024773692 0
447 1 1 1 1 -86.11631599516426 -35.5372832027755 0
448 1 1 1 1 -106.8983452599979 159.4098983984031 0
449 1 1 1 1 -100.1641502294446 99.75015358313658 0
450 1 1 1 1 -53.33742729205949 109.7684619566857 0
451 1 1 1 1 27.65090532727999 -18.12348243380524 0
452 1 1 1 1 -153.4477934265554 126.7297904404037 0
453 1 1 1 1 -44.4142733874714 -144.3699923616133 0
454 1 1 1 1 -138.8637284863861 56.60365078061571 0
455 1 1 1 1 65.79355880867271 92.4905927867471 0
456 1 1 1 1 -59.46731180971298 81.648443332976 0
457 1 1 1 1 -65.59083751401062 -83.16957442853078 0
458 1 1 1 1 42.16359990143374 68.08698054631861 0
459 1 1 1 1 -138.4528737590771 80.44938088742447 0
460 1 1 1 1 -94.41814442161149 -119.8826079487132 0
461 1 1 1 1 85.21466108818404 -47.04587013953812 0
462 1 1 1 1 38.19408093121558 47.34637372218958 0
463 1 1 1 1 -14.38113389970357 145.7286482792075 0
464 1 1 1 1 -85.5411061157119 -99.64476646234897 0
465 1 1 1 1 40.48149783154966 -5.225291772185926 0
466 1 1 1 1 96.42904191611177 -102.5439826435463 0
467 1 1 1 1 -91.59910257673396 65.01793693835413 0
468 1 1 1 1 -69.80810624946962 137.8787067004257 0
469 1 1 1 1 -149.5384534556361 -141.2258379783137 0
470 1 1 1 1 -136.4145024805924 14.87355385783789 0
471 1 1 1 1 -34.22751132849349 130.831500223843 0
472 1 1 1 1 -122.4712174377155 44.9740205555234 0
473 1 1 1 1 -81.14014035578684 10.80523432939427 0
474 1 1 1 1 -3.938567704996672 134.3866958488546 0
475 1 1 1 1 36.38474594552517 27.89519622455998 0
476 1 1 1 1 -132.3614068650339 122.6127199478664 0
477 1 1 1 1 153.3830269232472 -141.6617562971343 0
478 1 1 1 1 -33.73652388766001 -102.6469646011813 0
479 1 1 1 1 -48.93635136808629 154.8228287145921 0
480 1 1 1 1 -23.824693003937 -130.5071422182204 0
481 1 1 1 1 116.5729563729896 130.7023540062823 0
482 1 1 1 1 -38.97218347980505 5.30593551258147 0
483 1 1 1 1 154.6602396633678 -157.980601742982 0
484 1 1 1 1 15.88612030132327 17.60340319125959 0
485 1 1 1 1 -155.9076552827571 -65.51884539768142 0
486 1 1 1 1 -21.55554167766854 -15.94951509287336 0
487 1 1 1 1 118.0834548259182 68.35643945349258 0
488 1 1 1 1 24.03014022878583 72.5907564087413 0
489 1 1 1 1 -39.40399066357205 -114.648587833739 0
490 1 1 1 1 -152.4403883863801 101.5471331555732 0
491 1 1 1 1 -147.0348870074894 65.4736932891291 0
492 1 1 1 1 133.2639035246951 107.1807537735215 0
493 1 1 1 1 -57.17713978827533 121.1834158159757 0
494 1 1 1 1 112.0732372324012 151.3171568128552 0
495 1 1 1 1 -20.47601279841584 -142.4612426872271 0
496 1 1 1 1 -61.19935593465364 26.68606967360375 0
497 1 1 1 1 -123.7898777103956 -87.04899176968624 0
498 1 1 1 1 -64.13392898503552 -60.28951925282243 0
499 1 1 1 1 -71.23807880830441 -113.8644878723736 0
500 1 1 1 1 -99.17768426178277 -73.5435945950199 0
501 1 1 1 1 93.40584980653102 -11.49214208772213 0
502 1 1 1 1 -46.83960531076761 123.5332631733849 0
503 1 1 1 1 -38.80737295194098 -36.7998449705124 0
504 1 1 1 1 -153.1556289028356 9.618103912446543 0
505 1 1 1 1 132.2805142229826 -97.97263818764304 0
506 1 1 1 1 25.59105015299838 -54.34297386947864 0
507 1 1 1 1 -39.25614065478513 -88.70642691548476 0
508 1 1 1 1 153.0541453017495 85.06581236820779 0
509 1 1 1 1 130.1655507682388 -40.33773896222985 0
510 1 1 1 1 10.28578807772308 -44.27253794421165 0
511 1 1 1 1 28.62340400130904 140.0514519673779 0
512 1 1 1 1 72.6858928240859 65.56206975957477 0
513 1 1 1 1 89.06969600838707 12.09773322751883 0
514 1 1 1 1 -43.37759846872925 33.38040561637172 0
515 1 1 1 1 -141.3009296150009 -147.7736544838786 0
516 1 1 1 1 -113.6656803262533 -5.430313561421997 0
517 1 1 1 1 92.30139190679279 36.45725481798792 0
518 1 1 1 1 125.1716456267457 -83.41663454401964 0
519 1 1 1 1 20.19245435166528 95.5125264329231 0
520 1 1 1 1 10.98353048378044 55.72230425460776 0
521 1 1 1 1 -133.3395570220625 -96.62213649411825 0
522 1 1 1 1 -102.4976720954417 123.0027682953104 0
523 1 1 1 1 106.3281940862664 -47.25673041148954 0
524 1 1 1 1 44.66728262655545 114.0546618811498 0
525 1 1 1 1 -82.66011601321544 135.4886166999217 0
526 1 1 1 1 30.82597134157442 -85.09849528568402 0
527 1 1 1 1 97.97650935300072 -65.95646188978546 0
528 1 1 1 1 -86.70013224664011 78.56733710786051 0
529 1 1 1 1 67.77203339199303 -118.6219272877031 0
530 1 1 1 1 -69.58825363212348 -43.22469648454032 0
531 1 1 1 1 56.63080784359269 24.56821526643 0
532 1 1 1 1 67.83535717389498 102.3335774069399 0
533 1 1 1 1 -27.30310852670704 -157.4809438716557 0
534 1 1 1 1 110.1627993358173 -14.82673107028796 0
535 1 1 1 1 -111.0318961757953 -97.33625253988109 0
536 1 1 1 1 121.3034570180839 -156.2854410832001 0
537 1 1 1 1 47.28574409588208 -55.62612464612336 0
538 1 1 1 1 -36.54003381083115 -4.589438244844246 0
539 1 1 1 1 -159.6172042963353 151.7648237325809 0
540 1 1 1 1 -123.5965714660341 -40.25551611511932 0
541 1 1 1 1 -151.5441991361006 87.90257849892129 0
542 1 1 1 1 159.8156026309106 -126.4147383476193 0
543 1 1 1 1 -118.4315329620861 60.98589131569736 0
544 1 1 1 1 53.4673830544867 63.99101849652442 0
545 1 1 1 1 3.506989617522606 -148.8378374144025 0
546 1 1 1 1 82.80898381819475 87.31257545009305 0
547 1 1 1 1 123.1340484638603 -28.13825351756077 0
548 1 1 1 1 -66.39699784698695 -104.821689182474 0
549 1 1 1 1 10.73776980516783 -112.6887905435165 0
550 1 1 1 1 142.3305143514737 56.87567859882063 0
551 1 1 1 1 78.33574998473671 111.8910630441166 0
552 1 1 1 1 99.31003420629395 75.67021355671676 0
553 1 1 1 1 134.4123738794736 69.81447481148592 0
554 1 1 1 1 59.97087302702153 -155.7658857950622 0
555 1 1 1 1 65.48715787346592 -56.73621272818565 0
556 1 1 1 1 -92.68129636955827 40.5748607919291 0
557 1 1 1 1 89.75522600410716 107.3464703544631 0
558 1 1 1 1 39.6402792903481 159.8091227353509 0
559 1 1 1 1 -5.407444244860926 76.62104207255362 0
560 1 1 1 1 147.4870881664184 -101.1356737921657 0
561 1 1 1 1 -115.5992352452559 73.08064424005005 0
562 1 1 1 1 71.97134968649812 -48.36455376929689 0
563 1 1 1 1 111.0704742384687 139.0715649682936 0
564 1 1 1 1 -2.453875992193815 54.42869722743919 0
565 1 1 1 1 26.26594424668514 -121.5071198006611 0
566 1 1 1 1 159.2687236894137 21.01143056882148 0
567 1 1 1 1 3.33736384665167 -79.57631501428867 0
568 1 1 1 1 -105.6180177611549 -42.47995827927849 0
569 1 1 1 1 -11.20975363551781 159.8393400881453 0
570 1 1 1 1 -24.88030588822409 44.17326663608361 0
571 1 1 1 1 -131.7494069441308 111.8972264787706 0
572 1 1 1 1 -35.72640050245286 -57.27087846848622 0
573 1 1 1 1 -43.23454963381326 86.8110847179326 0
574 1 1 1 1 -69.56641411463463 -25.20894194743352 0
575 1 1 1 1 -49.79411061060947 71.83089531038854 0
576 1 1 1 1 3.671829607817585 -55.62520594468459 0
577 1 1 1 1 -54.89090342510053 93.63240006350068 0
578 1 1 1 1 122.6905122089833 48.82664826269163 0
579 1 1 1 1 -40.35311111515604 66.77837289294646 0
580 1 1 1 1 88.13244320560668 -115.9980145155952 0
581 1 1 1 1 -61.49589154475765 -32.22829000138378 0
582 1 1 1 1 140.1820963112628 -135.7199880137729 0
583 1 1 1 1 52.95146589926196 -37.94436438940679 0
584 1 1 1 1 143.4953223987018 -157.8943346631984 0
585 1 1 1 1 53.5465375067127 -101.5905813729631 0
586 1 1 1 1 -24.02677347350351 128.4762862956266 0
587 1 1 1 1 -57.58547088492836 55.1751590039637 0
588 1 1 1 1 -122.2398714543867 -150.1811030798954 0
589 1 1 1 1 1.449471587447562 -127.2000100181305 0
590 1 1 1 1 54.63522030135238 -67.0020401059891 0