

719 atoms
1563 bonds
1 atom types
1 bond types
-160 160 xlo xhi
-160 160 ylo yhi
-32 32 zlo zhi

Atoms #bpm/sphere

1 1 1 1 1 -76.83151904724028 -31.41914407713381 0
2 1 1 1 1 14.59123249130442 -32.49252852241312 0
3 1 1 1 1 -137.0774300538865 38.56396026935317 0
4 1 1 1 1 47.5772595259354 61.8361198921269 0
5 1 1 1 1 -26.05016238030083 -1.714276115453799 0
6 1 1 1 1 -18.68020737895947 97.77998162787929 0
7 1 1 1 1 22.23828583571873 18.11690210256495 0
8 1 1 1 1 78.65077294828842 118.6837005760553 0
9 1 1 1 1 -61.8098497158401 0.02579407259139543 0
10 1 1 1 1 88.85429448318231 -12.49141534948569 0
11 1 1 1 1 42.97034110288976 -124.7756618828589 0
12 1 1 1 1 -15.92118179703243 77.83125663522696 0
13 1 1 1 1 64.67482516345621 -75.02130306236381 0
14 1 1 1 1 9.570145997994416 41.58180742003705 0
15 1 1 1 1 -141.7291512590774 -31.35697393370421 0
16 1 1 1 1 73.54349137800631 -133.2713078375181 0
17 1 1 1 1 -99.1979967357415 71.68226643546427 0
18 1 1 1 1 -98.43909219347876 114.9474513584939 0
19 1 1 1 1 51.84597393077723 -128.46245898061 0
20 1 1 1 1 -49.86338007574581 22.03367497127888 0
21 1 1 1 1 28.51469599815115 -14.87628672188487 0
22 1 1 1 1 54.1197933483615 -100.5529125879738 0
23 1 1 1 1 -45.11164553128606 -37.95168522301374 0
24 1 1 1 1 -114.7018650727403 -79.82302403816298 0
25 1 1 1 1 -2.528632048812369 91.40020853972371 0
26 1 1 1 1 13.13961417409814 -150.7210795105624 0
27 1 1 1 1 -0.1803332559829585 -63.37871954287135 0
28 1 1 1 1 -30.90099037607916 -122.2916929389739 0
29 1 1 1 1 -5.328022734344955 -47.79388930391576 0
30 1 1 1 1 127.1733116767733 128.4618764166939 0
31 1 1 1 1 -61.08347321962557 -98.18602640311244 0
32 1 1 1 1 112.360397178116 57.03436208395689 0
33 1 1 1 1 -135.2137850374075 4.238198806252228 0
34 1 1 1 1 -15.27736274527126 -62.47447121675044 0
35 1 1 1 1 -132.4370888654286 -71.49726868135076 0
36 1 1 1 1 -147.8782467574714 32.69709392222217 0
37 1 1 1 1 134.7299859755827 14.53997386676335 0
38 1 1 1 1 -154.6218311950232 -60.36501664272978 0
39 1 1 1 1 6.783118318881577 -77.93323129687639 0
40 1 1 1 1 95.53806946694749 18.06526177048372 0
41 1 1 1 1 50.51435304749103 -61.40516631040813 0
42 1 1 1 1 48.60480881038544 -112.7867108391434 0
43 1 1 1 1 -150.3865816693519 144.6866387501182 0
44 1 1 1 1 118.4765126875475 -122.9088584020315 0
45 1 1 1 1 -129.9174121898185 139.0105104084887 0
46 1 1 1 1 79.00610014974492 -147.0478130961044 0
47 1 1 1 1 22.01323913524772 -98.6141068358085 0
48 1 1 1 1 66.73689763620433 99.86686096715061 0
49 1 1 1 1 55.10642567945604 152.5129261821058 0
50 1 1 1 1 0.1273920989226269 4.070292326869321 0
51 1 1 1 1 148.7435677379852 79.40850436650067 0
52 1 1 1 1 -159.7306746812436 14.50851062282555 0
53 1 1 1 1 37.48817518377368 55.61811459454867 0
54 1 1 1 1 -149.636281680524 -1.018467967044728 0
55 1 1 1 1 -17.7344808573196 -92.55635128466075 0
56 1 1 1 1 36.10539265525549 119.1239455452119 0
57 1 1 1 1 -15.95113084211309 67.50244740855851 0
58 1 1 1 1 96.01899866924225 -121.2406408144717 0
59 1 1 1 1 66.3549117407544 87.86954726223709 0
60 1 1 1 1 23.92249950853318 -76.37956952201108 0
61 1 1 1 1 46.31182873321109 -18.90490260765074 0
62 1 1 1 1 80.40361872539353 -20.03072586215086 0
63 1 1 1 1 34.74962113479438 -55.97349013469227 0
64 1 1 1 1 52.11853376991587 -89.1437266529708 0
65 1 1 1 1 -6.574811507442973 -134.0629023489643 0
66 1 1 1 1 -59.6286333655743 -22.34126741881533 0
67 1 1 1 1 102.4816475350132 92.24417964855593 0
68 1 1 1 1 -92.48025317204832 -68.05355008020098 0
69 1 1 1 1 128.7440985254802 -116.3159877775151 0
70 1 1 1 1 81.98808394560885 -33.15408426855157 0
71 1 1 1 1 91.25432742455297 -136.4610694375043 0
72 1 1 1 1 -4.506925478788787 118.486806106093 0
73 1 1 1 1 -148.450855564453 -159.7353447172248 0
74 1 1 1 1 -150.8929965480763 61.98529783690773 0
75 1 1 1 1 109.4670978122604 -47.0677299714697 0
76 1 1 1 1 16.60842013324907 54.44370906325133 0
77 1 1 1 1 -124.2394688983315 53.03758361238647 0
78 1 1 1 1 47.15560099823693 -41.51755703919565 0
79 1 1 1 1 -117.5791748723102 155.614770953361 0
80 1 1 1 1 95.42957791224666 141.4547831716083 0
81 1 1 1 1 109.1313225433554 -131.9781891473743 0
82 1 1 1 1 68.06815904916189 6.841543365640803 0
83 1 1 1 1 94.57166708609802 57.62046109710525 0
84 1 1 1 1 124.678620823596 -43.20892113358539 0
85 1 1 1 1 -80.38625622312378 136.2162728653879 0
86 1 1 1 1 -67.42345938739444 127.7937098647155 0
87 1 1 1 1 -44.62846976758723 -96.24567171073373 0
88 1 1 1 1 -77.19755908130477 64.39983768337925 0
89 1 1 1 1 -110.4030963750294 8.446374110860262 0
90 1 1 1 1 115.9800301695274 76.6935231735923 0
91 1 1 1 1 -121.2803015604507 63.06107238297017 0
92 1 1 1 1 71.4963146601105 -96.14969301094909 0
93 1 1 1 1 77.76277248881206 -64.95609729027575 0
94 1 1 1 1 37.79867077623325 -149.1296507636789 0
95 1 1 1 1 -80.59859302255767 109.1476639685199 0
96 1 1 1 1 82.00440267072247 100.4901168298492 0
97 1 1 1 1 133.1148834771577 143.3639149024453 0
98 1 1 1 1 -60.55670702204161 102.2073390081108 0
99 1 1 1 1 43.16422669388075 -9.631302309757615 0
100 1 1 1 1 67.81986268360464 -11.90819279561097 0
101 1 1 1 1 -70.96234295532355 -154.2441032487404 0
102 1 1 1 1 -103.5329847122253 138.6073647668576 0
103 1 1 1 1 24.74067053193448 -4.126432041061861 0
104 1 1 1 1 -30.01493629196122 -150.9899327547047 0
105 1 1 1 1 74.65837560502086 154.5673428566123 0
106 1 1 1 1 -126.0154947866582 -136.7032245618855 0
107 1 1 1 1 -158.6714588693701 -159.5806229695728 0
108 1 1 1 1 125.2226847024372 20.09605998814055 0
109 1 1 1 1 -32.93536218242369 -39.03630046847883 0
110 1 1 1 1 129.1471703686526 118.6268920402793 0
111 1 1 1 1 -35.70060836598522 83.82448453484957 0
112 1 1 1 1 -128.4368869515484 -147.4097061936492 0
113 1 1 1 1 -68.32301004132572 -110.6386849066191 0
114 1 1 1 1 -54.48882213520051 -13.94329986239001 0
115 1 1 1 1 -77.59586206568905 -12.68275675805768 0
116 1 1 1 1 -97.93437129574457 -99.65812940642959 0
117 1 1 1 1 -88.72488994337502 -92.1858799355567 0
118 1 1 1 1 -120.7131513506043 -60.78812778579558 0
119 1 1 1 1 -47.76738145379497 -79.81226563042202 0
120 1 1 1 1 -153.7960402559 -141.7606817185837 0
121 1 1 1 1 -93.53379195106638 42.72363197719005 0
122 1 1 1 1 -63.69541174431312 -86.67177022041724 0
123 1 1 1 1 -86.01338481351171 -105.9583013814574 0
124 1 1 1 1 -81.59180677890109 -146.1017710903491 0
125 1 1 1 1 60.12600952247919 33.50531614734169 0
126 1 1 1 1 145.1816518226309 21.05392440902824 0
127 1 1 1 1 -43.42172698358479 -133.2774418533868 0
128 1 1 1 1 -59.68460991872298 79.9913607254702 0
129 1 1 1 1 -57.89649050654674 -117.6872835973422 0
130 1 1 1 1 -19.54618928400339 126.7573989511246 0
131 1 1 1 1 -52.64613373866489 147.1878867253875 0
132 1 1 1 1 159.8243799604764 117.9767714228013 0
133 1 1 1 1 -52.58684616446729 -44.34349023027121 0
134 1 1 1 1 92.3227347013655 -148.5096627313191 0
135 1 1 1 1 -105.047182814458 -89.91246745281896 0
136 1 1 1 1 136.6150796351018 -131.6941735692236 0
137 1 1 1 1 137.2493685921642 0.009397635345123945 0
138 1 1 1 1 6.108654903315767 -103.6533679866017 0
139 1 1 1 1 91.3687834840795 -1.735243823909656 0
140 1 1 1 1 64.29234813981986 -106.7749836891771 0
141 1 1 1 1 -34.17984753216125 -106.8686558797272 0
142 1 1 1 1 -152.1009427020518 -20.5379198444611 0
143 1 1 1 1 -148.285864516233 -82.31623357665569 0
144 1 1 1 1 22.52729450042307 137.582096492822 0
145 1 1 1 1 -70.16585311844625 46.67054547138164 0
146 1 1 1 1 26.19585532557537 108.2861852392236 0
147 1 1 1 1 45.92670821162446 129.105242428054 0
148 1 1 1 1 -96.98077423090552 -17.79832155023348 0
149 1 1 1 1 -12.81639236511074 10.68490905000237 0
150 1 1 1 1 -75.07921929648032 75.50983641730906 0
151 1 1 1 1 -126.3586116989011 101.7611382016008 0
152 1 1 1 1 -87.98537486587406 24.2081630375944 0
153 1 1 1 1 -102.0255187682719 54.24163841342715 0
154 1 1 1 1 -74.79865064651527 -42.43945906115023 0
155 1 1 1 1 -49.5458956968267 103.126218586441 0
156 1 1 1 1 -103.5606182681176 35.17305641222069 0
157 1 1 1 1 159.6982161443091 -156.8493119345477 0
158 1 1 1 1 -103.1136555121167 -51.23285483481882 0
159 1 1 1 1 -39.08683267822266 153.7603327181797 0
160 1 1 1 1 -67.0940076555591 -73.71720449074495 0
161 1 1 1 1 152.7964865843683 -105.9919757326587 0
162 1 1 1 1 50.38328770662844 87.71564521848188 0
163 1 1 1 1 117.4749736420808 148.8284789291766 0
164 1 1 1 1 20.65992841365716 91.46352345596171 0
165 1 1 1 1 67.23547231298869 121.5107913160869 0
166 1 1 1 1 14.05211953628708 -85.83326974264207 0
167 1 1 1 1 -148.5175889674221 -107.8677067307763 0
168 1 1 1 1 -43.56238339887912 -61.18786120886227 0
169 1 1 1 1 -61.11477589329542 117.5958895168461 0
170 1 1 1 1 134.6968743770248 85.20055327659833 0
171 1 1 1 1 -115.9725203592151 108.6662081318979 0
172 1 1 1 1 25.63442987972627 79.02039051805485 0
173 1 1 1 1 60.54937520934075 -141.7296906741289 0
174 1 1 1 1 -135.1276471338714 -155.6409087715965 0
175 1 1 1 1 -116.3190741174456 28.86287952840607 0
176 1 1 1 1 -141.3682261025059 -16.25271973852986 0
177 1 1 1 1 -2.317364361629899 106.83097028936 0
178 1 1 1 1 -137.6088558828777 118.6375149007619 0
179 1 1 1 1 -157.5075599135924 87.15558663574481 0
180 1 1 1 1 98.40929986766537 112.1512232535554 0
181 1 1 1 1 144.9539716207754 -43.72199696811964 0
182 1 1 1 1 135.228996986869 47.53719757290634 0
183 1 1 1 1 68.10767458169491 -50.34479645026022 0
184 1 1 1 1 -70.57038725977773 111.774769482882 0
185 1 1 1 1 113.699919211851 -28.78861675736385 0
186 1 1 1 1 -119.4403670172379 -93.32310901619131 0
187 1 1 1 1 -44.55999764866363 111.8584800889413 0
188 1 1 1 1 107.564902146063 5.128427513112342 0
189 1 1 1 1 -109.3220547225769 81.31362580908382 0
190 1 1 1 1 -30.07818762390539 111.2992443575757 0
191 1 1 1 1 -121.8690312289908 -4.267913497660231 0
192 1 1 1 1 -29.90602132199206 -52.83928497425386 0
193 1 1 1 1 -93.53275872987152 -148.0582126333818 0
194 1 1 1 1 111.0507788473953 -142.9751063609856 0
195 1 1 1 1 92.5508211843902 -90.54906620850282 0
196 1 1 1 1 45.76439231738061 104.9104824891994 0
197 1 1 1 1 139.2044769755726 65.09359176311679 0
198 1 1 1 1 -62.0589771069163 -132.5012658626634 0
199 1 1 1 1 -99.10207828824177 92.69495615655384 0
200 1 1 1 1 -103.1596762751971 -75.34614419112764 0
201 1 1 1 1 71.99358421090136 56.74428659712279 0
202 1 1 1 1 -7.805913163860254 35.49830472509274 0
203 1 1 1 1 -65.43186111921881 60.36685401464965 0
204 1 1 1 1 -129.6118508315833 124.313698506331 0
205 1 1 1 1 -53.92489732947169 -69.43059258456763 0
206 1 1 1 1 141.4723008336104 150.1852366774342 0
207 1 1 1 1 -19.95721411454377 -156.7789967707884 0
208 1 1 1 1 -85.45224863451497 -79.31044585556219 0
209 1 1 1 1 -147.6759610651508 126.3217122034567 0
210 1 1 1 1 -80.89274858864663 -130.2471063470879 0
211 1 1 1 1 -46.39781854989224 123.9166609674943 0
212 1 1 1 1 105.8386507040695 121.355755106842 0
213 1 1 1 1 75.1187764945094 138.546716818697 0
214 1 1 1 1 73.49311760928319 -111.2159408118074 0
215 1 1 1 1 -92.91135105036062 82.89460466438527 0
216 1 1 1 1 -91.41093554099157 10.74286564480016 0
217 1 1 1 1 25.94065806221539 -33.71970753464612 0
218 1 1 1 1 -19.72491525005879 -76.97394013281649 0
219 1 1 1 1 31.71793878335919 20.57741727381284 0
220 1 1 1 1 123.2671988565388 41.67597733107829 0
221 1 1 1 1 -10.45267105248027 -111.1558501771475 0
222 1 1 1 1 84.79923549608557 -121.7481092126171 0
223 1 1 1 1 128.813352042358 -78.58478748523311 0
224 1 1 1 1 -31.92479588044765 -97.28655422922455 0
225 1 1 1 1 -33.3415211552622 21.76503391058196 0
226 1 1 1 1 -120.1217013828164 40.18334186396643 0
227 1 1 1 1 78.55626112961798 -6.600530025366112 0
228 1 1 1 1 142.6004757135227 -68.00792489295577 0
229 1 1 1 1 -109.8168298913725 146.6978627973777 0
230 1 1 1 1 -72.51367850734096 93.62608902944842 0
231 1 1 1 1 23.36392587293116 -64.4604322371423 0
232 1 1 1 1 -7.389400760065968 53.62864024451562 0
233 1 1 1 1 134.6104057092563 -14.02603249976579 0
234 1 1 1 1 10.97477928488166 -129.2538704569048 0
235 1 1 1 1 88.45367127270322 131.0966881247305 0
236 1 1 1 1 -12.76505646766742 45.54510559190877 0
237 1 1 1 1 144.2529417056727 97.66904428206669 0
238 1 1 1 1 -0.4338512076660663 -122.4167476292685 0
239 1 1 1 1 154.4821176129798 47.45753098359012 0
240 1 1 1 1 74.25688903317217 -122.9485633972999 0
241 1 1 1 1 105.8637639996128 30.57375581286576 0
242 1 1 1 1 0.359827386408881 128.1849294910646 0
243 1 1 1 1 127.6806561108325 31.81785709838056 0
244 1 1 1 1 146.5329961729578 -157.8988040644774 0
245 1 1 1 1 63.79012383222019 -25.79242736123032 0
246 1 1 1 1 -36.85831009264099 -143.6939095873771 0
247 1 1 1 1 80.80118966353746 72.31683766136499 0
248 1 1 1 1 58.29422377547166 -13.41057701725163 0
249 1 1 1 1 149.6330382982949 -83.94273616899869 0
250 1 1 1 1 159.4980375800092 33.89270411726324 0
251 1 1 1 1 -9.400122845061361 -19.0963912194654 0
252 1 1 1 1 -85.34614056039288 126.9322196804287 0
253 1 1 1 1 -78.11466390654471 -97.35170760245495 0
254 1 1 1 1 74.70682741286402 22.92995662916559 0
255 1 1 1 1 -135.4503218340737 -131.1112066136897 0
256 1 1 1 1 122.3056028049451 107.1056999579032 0
257 1 1 1 1 -92.83277519563839 -51.15597973496764 0
258 1 1 1 1 22.10901666154004 -130.1502556379475 0
259 1 1 1 1 -128.0515231157821 -106.1383357957567 0
260 1 1 1 1 52.78295481369238 140.5007278587139 0
261 1 1 1 1 108.3895699595982 135.9801190281722 0
262 1 1 1 1 -106.4956626795242 -37.59700589592211 0
263 1 1 1 1 64.47848218420543 145.9201641069412 0
264 1 1 1 1 -157.1555937176273 -112.903429500196 0
265 1 1 1 1 -128.0603480156757 152.0335763752632 0
266 1 1 1 1 -18.05884597328412 109.3778873335889 0
267 1 1 1 1 19.93552861800495 67.70369814852873 0
268 1 1 1 1 -51.6191855719492 59.67985144411475 0
269 1 1 1 1 -154.7336498818737 41.89974569201635 0
270 1 1 1 1 117.4290380558929 -56.43095718146682 0
271 1 1 1 1 -46.68467821257416 -117.695411314883 0
272 1 1 1 1 139.6751621407525 -145.7880205015474 0
273 1 1 1 1 150.7275996875395 -143.8059949614454 0
274 1 1 1 1 -117.4627961653208 132.6229644082345 0
275 1 1 1 1 120.6471423994258 -133.2835349238013 0
276 1 1 1 1 2.897058423908874 -138.3112427853073 0
277 1 1 1 1 43.97550743843101 11.18082798459335 0
278 1 1 1 1 62.4401923733619 -127.0831738752967 0
279 1 1 1 1 141.7244628011503 40.0678219280083 0
280 1 1 1 1 2.70867749303406 -32.21968823472454 0
281 1 1 1 1 8.113539074061066 66.25719735425793 0
282 1 1 1 1 55.67599811345033 -150.7119996761527 0
283 1 1 1 1 -70.31313695977443 138.1892437895676 0
284 1 1 1 1 115.2799471599348 -105.1017851349641 0
285 1 1 1 1 -123.0468273813011 -36.60474209247631 0
286 1 1 1 1 -87.16801344204519 -159.3566069422941 0
287 1 1 1 1 145.5565729573793 111.5121542015049 0
288 1 1 1 1 -60.7347873460098 -50.93295956929246 0
289 1 1 1 1 -36.61801377008253 -69.97329385909055 0
290 1 1 1 1 1.958736588785797 -14.67609038450146 0
291 1 1 1 1 -47.52530821538862 -27.69223296905079 0
292 1 1 1 1 54.17477284202317 109.8282386325669 0
293 1 1 1 1 136.217484984089 -26.45645767980704 0
294 1 1 1 1 -136.6538890793033 -93.38435388116824 0
295 1 1 1 1 52.25574561114956 19.50120586680436 0
296 1 1 1 1 -28.33211317392042 137.0141590159064 0
297 1 1 1 1 -45.42339945785403 -153.725870703999 0
298 1 1 1 1 21.2763265731586 157.5756668659944 0
299 1 1 1 1 -108.6703736811187 -122.8587483306861 0
300 1 1 1 1 38.98078792761982 155.7436814485038 0
301 1 1 1 1 -73.55465642924592 -62.66373108424776 0
302 1 1 1 1 -16.50225624908501 137.457655200777 0
303 1 1 1 1 -21.35361268469509 -24.54864705415036 0
304 1 1 1 1 151.3379062969511 -36.54104132241952 0
305 1 1 1 1 -131.1165452924845 -7.414691435330354 0
306 1 1 1 1 -51.43885233715935 -109.1426691645111 0
307 1 1 1 1 -77.8482072397419 148.5831862372832 0
308 1 1 1 1 -12.70750869434073 -6.173467855157583 0
309 1 1 1 1 148.2911088710812 -11.64375499183086 0
310 1 1 1 1 -122.2203011226767 -125.3003457865996 0
311 1 1 1 1 -84.20108710321124 158.251373430592 0
312 1 1 1 1 8.488688760855013 -48.85686693351339 0
313 1 1 1 1 6.259848339308576 56.33184509233882 0
314 1 1 1 1 39.03893352094769 85.91518051036982 0
315 1 1 1 1 124.95485615488 159.0110078770875 0
316 1 1 1 1 58.27082142993177 128.7786641282597 0
317 1 1 1 1 84.58668727222374 37.02157208239089 0
318 1 1 1 1 -44.57941755102887 91.94708239770796 0
319 1 1 1 1 -4.334573635051754 -159.0988676478073 0
320 1 1 1 1 35.10714187940366 5.005922308261006 0
321 1 1 1 1 -24.83605832677679 -65.4158133901181 0
322 1 1 1 1 -80.68829240076226 -69.75450160663897 0
323 1 1 1 1 24.74281775533416 48.60288084921717 0
324 1 1 1 1 -18.77262538121579 -44.106363060158 0
325 1 1 1 1 38.41879800264741 -98.62008553035473 0
326 1 1 1 1 120.0343429495538 -20.46424611955268 0
327 1 1 1 1 153.7055912868257 136.8797505541929 0
328 1 1 1 1 30.58949325618164 31.15526181894299 0
329 1 1 1 1 -63.42170032700852 -32.95763385983776 0
330 1 1 1 1 -41.48888994843904 3.079453467404505 0
331 1 1 1 1 81.972198646979 57.58051239453152 0
332 1 1 1 1 26.04297350177146 -147.8629827658592 0
333 1 1 1 1 -11.43684760481005 24.28097778297069 0
334 1 1 1 1 102.8903070201048 -29.76244650671208 0
335 1 1 1 1 -136.5426743030167 28.54608434756182 0
336 1 1 1 1 -159.2761484866102 100.3245309951016 0
337 1 1 1 1 -41.04468647679124 -19.01159067520638 0
338 1 1 1 1 -111.8568336572493 -4.594807636664456 0
339 1 1 1 1 -146.975468122682 102.4672704197453 0
340 1 1 1 1 28.33414513276529 -121.9070016060282 0
341 1 1 1 1 -27.43537203542303 45.47555686321022 0
342 1 1 1 1 -140.5476018305708 149.2138805763211 0
343 1 1 1 1 -143.5067474991183 -61.84497982773266 0
344 1 1 1 1 -28.50859312553422 71.50620808801008 0
345 1 1 1 1 24.96273918230969 -87.89658427501728 0
346 1 1 1 1 -15.92203436882218 155.4029528650941 0
347 1 1 1 1 146.9605520334182 10.96305544127898 0
348 1 1 1 1 73.91110450392674 -39.01501103824742 0
349 1 1 1 1 117.0823083218879 -82.85953516504276 0
350 1 1 1 1 -43.4173592047128 135.1190824417271 0
351 1 1 1 1 -96.97668980900822 -157.9127500077235 0
352 1 1 1 1 30.05488381765923 -136.0125230301178 0
353 1 1 1 1 -136.5380444352685 53.92000218681375 0
354 1 1 1 1 105.3151773574603 153.7729663066876 0
355 1 1 1 1 -55.56850095056745 135.4673781276173 0
356 1 1 1 1 -64.17982126057765 88.83948726809325 0
357 1 1 1 1 35.031255638646 -79.05700570005784 0
358 1 1 1 1 -104.8553971579031 -138.0868801470987 0
359 1 1 1 1 146.7571308902187 124.3279315640403 0
360 1 1 1 1 99.48448363073516 -106.5390051530233 0
361 1 1 1 1 -144.940958197542 48.30342154259273 0
362 1 1 1 1 -25.17526745782504 -142.0712284133283 0
363 1 1 1 1 -100.9887756685094 152.457918835858 0
364 1 1 1 1 113.3894090327228 17.55149364620269 0
365 1 1 1 1 -143.9491916532928 74.55561327490307 0
366 1 1 1 1 -159.8395057821184 132.6051699651882 0
367 1 1 1 1 142.7362840661589 -115.6910892663957 0
368 1 1 1 1 14.99475334618947 -10.21932941917228 0
369 1 1 1 1 32.33842980634188 -45.38462948255014 0
370 1 1 1 1 12.30944742597725 -58.73857949349403 0
371 1 1 1 1 -157.5319885845058 26.03526361439449 0
372 1 1 1 1 34.98702597931054 -25.32534251263155 0
373 1 1 1 1 -65.53934888344824 149.5437106360435 0
374 1 1 1 1 -22.9352801338442 30.20204606881092 0
375 1 1 1 1 158.8957007050642 -10.58412398121405 0
376 1 1 1 1 45.1114430843792 1.003962622623021 0
377 1 1 1 1 136.7192737039521 -85.66746463204862 0
378 1 1 1 1 -152.8558789563212 -122.9490441601435 0
379 1 1 1 1 155.7376870224642 107.0159628790928 0
380 1 1 1 1 -114.739257799359 95.47721368072982 0
381 1 1 1 1 42.99804234157779 28.10014797815501 0
382 1 1 1 1 96.37337219956146 -60.75325758701091 0
383 1 1 1 1 -137.2797121621651 102.5180448809715 0
384 1 1 1 1 -52.66142392972202 69.74222307699463 0
385 1 1 1 1 138.2500380993017 -52.15171136419002 0
386 1 1 1 1 65.34282201603384 18.16798864282322 0
387 1 1 1 1 56.24169658292755 -34.72878510687113 0
388 1 1 1 1 126.7175216776668 -142.6929374201669 0
389 1 1 1 1 -118.9105855667583 -148.7464682105801 0
390 1 1 1 1 79.1816111550543 45.9396541925131 0
391 1 1 1 1 -41.90144787335424 -8.647953681699562 0
392 1 1 1 1 -56.08461986364937 12.75125772871067 0
393 1 1 1 1 70.47563231535685 109.1419391787502 0
394 1 1 1 1 77.28153274168179 -84.19754551311871 0
395 1 1 1 1 158.7983274915434 -55.17650807886244 0
396 1 1 1 1 -118.244329133733 -106.8080715898297 0
397 1 1 1 1 -120.8448836996678 -47.07661057752844 0
398 1 1 1 1 -16.58805092330101 -131.3478220047218 0
399 1 1 1 1 -92.60667201371696 143.5715714969977 0
400 1 1 1 1 -155.7596544493114 -40.43062744891586 0
401 1 1 1 1 -53.8459799389264 -91.32292641790659 0
402 1 1 1 1 55.75206268911376 2.025114417762836 0
403 1 1 1 1 -126.5342222843329 21.24770478315781 0
404 1 1 1 1 27.47575309623562 125.5007767014226 0
405 1 1 1 1 127.2038355634829 7.02650015008345 0
406 1 1 1 1 107.5417316509951 -97.96839301837863 0
407 1 1 1 1 128.6172590604809 -65.75102248472326 0
408 1 1 1 1 102.4399178966103 70.14776260779445 0
409 1 1 1 1 10.90903303448837 2.003025400422644 0
410 1 1 1 1 85.56995446178408 -53.48612308817434 0
411 1 1 1 1 105.2406757185142 44.55811003297597 0
412 1 1 1 1 2.403241277651233 -91.41541704178209 0
413 1 1 1 1 -22.54006492559125 14.93203658827153 0
414 1 1 1 1 -101.819040188785 -0.4491036324970423 0
415 1 1 1 1 -95.56081801242343 -125.8391514635102 0
416 1 1 1 1 102.4592724119112 -6.829411775519645 0
417 1 1 1 1 -136.8143141874641 17.85070830554375 0
418 1 1 1 1 -45.88071665593617 40.52567321093181 0
419 1 1 1 1 94.18661493121988 -38.0450213804037 0
420 1 1 1 1 34.84871187009279 -110.5743728226897 0
421 1 1 1 1 9.219657562168067 132.6831659050969 0
422 1 1 1 1 103.5353335469871 -83.5438755638688 0
423 1 1 1 1 -105.3409486250538 -106.0837782861596 0
424 1 1 1 1 127.9043815807366 62.16281598568557 0
425 1 1 1 1 47.68919886242443 118.724314786557 0
426 1 1 1 1 10.52633685264163 24.40338801077553 0
427 1 1 1 1 87.85589949405454 -107.8533414952701 0
428 1 1 1 1 61.41515094982421 53.65950725718452 0
429 1 1 1 1 -67.84195886254594 -121.5711321428027 0
430 1 1 1 1 -27.27079322532921 -82.98876086111829 0
431 1 1 1 1 -17.33342398735749 -102.5678634907963 0
432 1 1 1 1 94.0521683503548 34.13868705475639 0
433 1 1 1 1 -120.4548266481787 78.88093721756997 0
434 1 1 1 1 -129.3800505728512 -28.5284914593912 0
435 1 1 1 1 -84.3863171419797 -118.9747412236398 0
436 1 1 1 1 -100.7839925223125 16.2139147638095 0
437 1 1 1 1 -74.69682113688776 11.55074171962499 0
438 1 1 1 1 -25.93923450831508 56.17678139484897 0
439 1 1 1 1 -88.66736559269097 -8.772899415325071 0
440 1 1 1 1 18.28932349497433 -112.5677068172794 0
441 1 1 1 1 -157.7867170166375 -90.35325427972118 0
442 1 1 1 1 -158.123817467579 116.8671901336675 0
443 1 1 1 1 95.60571675444601 77.25629037197038 0
444 1 1 1 1 -87.66244031619884 -41.44984726102632 0
445 1 1 1 1 44.11087280993644 -82.28007856007594 0
446 1 1 1 1 -80.91529520606696 -56.25337062540815 0
447 1 1 1 1 9.260357011141167 159.3354895435345 0
448 1 1 1 1 -148.234696112045 -149.6702099957356 0
449 1 1 1 1 -145.1563997973962 -43.37935306422288 0
450 1 1 1 1 159.5386276614299 78.92421283430502 0
451 1 1 1 1 62.6745946480047 78.9952315494601 0
452 1 1 1 1 -96.2789518125841 128.4894817821107 0
453 1 1 1 1 -109.8692190323279 -15.11313014202852 0
454 1 1 1 1 -3.803346491566572 62.76083202445687 0
455 1 1 1 1 158.8584949222018 -67.50336800622442 0
456 1 1 1 1 95.98348180638305 -71.91349542210297 0
457 1 1 1 1 55.47776487786902 69.40017415306903 0
458 1 1 1 1 -86.96715349865258 54.05309560554787 0
459 1 1 1 1 40.16747549925384 72.34791194376925 0
460 1 1 1 1 93.52356325345028 -25.15982745676158 0
461 1 1 1 1 -110.0955423519846 -58.25327022948085 0
462 1 1 1 1 -141.8306690960366 -118.5458988627982 0
463 1 1 1 1 -137.2656984655568 -109.5384478781281 0
464 1 1 1 1 -131.2226576716 76.08431445334585 0
465 1 1 1 1 -26.26812301914413 -13.98376891457474 0
466 1 1 1 1 41.6447311878868 -138.0761993654381 0
467 1 1 1 1 81.4930796032649 6.368833090900921 0
468 1 1 1 1 -109.0172978990507 127.2305125563344 0
469 1 1 1 1 122.9345813038493 -5.772814410991998 0
470 1 1 1 1 -11.23337019625586 -29.49872864604501 0
471 1 1 1 1 155.2922026847858 15.90426663411529 0
472 1 1 1 1 -32.45468552261087 8.703835062105412 0
473 1 1 1 1 -118.8098913911474 14.03017909583571 0
474 1 1 1 1 35.8104251467368 101.1129874574348 0
475 1 1 1 1 42.49670414615389 -72.45155156142974 0
476 1 1 1 1 65.56082905799826 -87.6264370567921 0
477 1 1 1 1 -70.03588559748184 24.0529688666989 0
478 1 1 1 1 14.00201108465055 77.11080307893994 0
479 1 1 1 1 -108.8913190715254 -155.34765172988 0
480 1 1 1 1 -82.17995589578166 82.42704851383701 0
481 1 1 1 1 -111.7069892278415 117.7653570047949 0
482 1 1 1 1 145.6063860503297 159.5914583144842 0
483 1 1 1 1 127.3579003357406 -100.0166939405435 0
484 1 1 1 1 -48.87393878264359 -141.3452121615724 0
485 1 1 1 1 91.52788027355768 87.35970181406483 0
486 1 1 1 1 -81.99825528235166 34.70843985865008 0
487 1 1 1 1 -131.0052931237635 92.92814490292898 0
488 1 1 1 1 141.414967724632 -104.4662693816419 0
489 1 1 1 1 149.4654807724455 -96.92214003623739 0
490 1 1 1 1 74.92730654902664 -156.4690434363916 0
491 1 1 1 1 33.06704751574458 40.9201000978565 0
492 1 1 1 1 -19.06056790922932 -121.0744272733126 0
493 1 1 1 1 158.1910785300634 62.75157002025617 0
494 1 1 1 1 88.44857418458173 115.6615319190554 0
495 1 1 1 1 -56.11816632403546 156.5882118253804 0
496 1 1 1 1 -140.9960100593531 137.5847536445286 0
497 1 1 1 1 64.51275294156548 157.9590710728916 0
498 1 1 1 1 33.08110745588093 138.4284303445195 0
499 1 1 1 1 103.8573038272867 -159.720920274811 0
500 1 1 1 1 -31.66761003743579 -132.6208755802453 0
501 1 1 1 1 -61.53106216936408 -142.7776670946407 0
502 1 1 1 1 90.00716090189943 66.2695252037 0
503 1 1 1 1 132.5083012408204 99.32694783006156 0
504 1 1 1 1 -63.57912361584731 -9.835624935639373 0
505 1 1 1 1 13.24208287439154 113.5974208215747 0
506 1 1 1 1 43.66863609396194 143.897118464535 0
507 1 1 1 1 -58.76678359924742 29.50524804186242 0
508 1 1 1 1 -108.0940116272471 62.90597987764218 0
509 1 1 1 1 105.9778540579955 79.4402109043935 0
510 1 1 1 1 -11.49493160894198 -85.044075739509 0
511 1 1 1 1 57.33744642206767 43.80741985697173 0
512 1 1 1 1 -57.21805899116262 -156.6174460895899 0
513 1 1 1 1 -112.3296573615552 -28.64742198890181 0
514 1 1 1 1 -7.159044609264924 -72.09380931213957 0
515 1 1 1 1 -85.12255436696125 70.1903367000975 0
516 1 1 1 1 -71.82030333525503 -0.5354357177057807 0
517 1 1 1 1 -58.75851498230361 52.80306129080469 0
518 1 1 1 1 -95.41798015929314 -110.7288619974686 0
519 1 1 1 1 73.64375313933317 37.68616767214701 0
520 1 1 1 1 -81.66060659842816 3.623285998517531 0
521 1 1 1 1 -148.2207511540442 17.53019200019125 0
522 1 1 1 1 0.501523767057563 73.18351884934143 0
523 1 1 1 1 -123.7161289627213 -17.3243596056594 0
524 1 1 1 1 -52.09963177624573 -2.696121656962021 0
525 1 1 1 1 14.18430474929411 143.083577663112 0
526 1 1 1 1 -128.8915576005305 113.9492971870232 0
527 1 1 1 1 117.6606843796976 -157.8050563548765 0
528 1 1 1 1 -156.3508651529646 73.885997452461 0
529 1 1 1 1 87.2415602985254 -159.5500032749977 0
530 1 1 1 1 -134.0117458471365 -57.17513769197019 0
531 1 1 1 1 -35.64353527943058 58.89651689475966 0
532 1 1 1 1 -70.67794086319239 159.4335687807746 0
533 1 1 1 1 -35.50156563633983 95.88723771998042 0
534 1 1 1 1 6.362044681169408 87.75925996899861 0
535 1 1 1 1 17.29271042508452 -159.8454240826952 0
536 1 1 1 1 94.6606515514307 153.6334524327327 0
537 1 1 1 1 110.6225877720898 -13.10535813696424 0
538 1 1 1 1 -142.4947069091631 92.62931352718323 0
539 1 1 1 1 155.7357705423032 150.1185262693217 0
540 1 1 1 1 -6.867376952731945 -146.1045504585766 0
541 1 1 1 1 50.64221111783854 36.08024634648763 0
542 1 1 1 1 149.9612974468249 -59.43643609424356 0
543 1 1 1 1 -67.7873218386744 34.56707148896896 0
544 1 1 1 1 86.05231892450448 -75.91721141940198 0
545 1 1 1 1 143.0416756232632 53.1998027701556 0
546 1 1 1 1 18.05962994363898 -45.59150563078947 0
547 1 1 1 1 -4.775165489069792 -101.0209311117142 0
548 1 1 1 1 97.04638786382606 101.6988916479529 0
549 1 1 1 1 -41.38198057341623 28.26534134186306 0
550 1 1 1 1 -26.89545562593682 148.1208100968077 0
551 1 1 1 1 -154.9901897255176 -10.42400618785092 0
552 1 1 1 1 159.225317907188 96.26282312100153 0
553 1 1 1 1 -98.78279149924748 -27.78897572426956 0
554 1 1 1 1 18.95509275971779 35.01868149778403 0
555 1 1 1 1 81.17693905109238 82.09965291034899 0
556 1 1 1 1 118.4298237441541 134.0252382483457 0
557 1 1 1 1 -81.39883926590926 45.57730215375275 0
558 1 1 1 1 -0.8293233741696611 152.2708198941658 0
559 1 1 1 1 -33.16423796611282 37.19789617842497 0
560 1 1 1 1 -110.5994085680291 19.2518248459136 0
561 1 1 1 1 118.5034709788089 117.2031660797521 0
562 1 1 1 1 -159.9394021938346 -100.8681371438631 0
563 1 1 1 1 -157.0267403018718 -71.91227130891477 0
564 1 1 1 1 -56.5944844730307 42.33546416697629 0
565 1 1 1 1 151.127986605426 2.168754708013125 0
566 1 1 1 1 133.7486637836783 -158.0406108353633 0
567 1 1 1 1 120.967617497304 89.52102032743932 0
568 1 1 1 1 105.4749746212367 -66.2065972212698 0
569 1 1 1 1 -131.2717599662219 65.01274512874886 0
570 1 1 1 1 -125.1652653440863 -83.57675452799103 0
571 1 1 1 1 83.75435236458176 145.1769840877199 0
572 1 1 1 1 -159.1740863400625 -49.51127426888192 0
573 1 1 1 1 -134.5542846873032 -40.38440020773291 0
574 1 1 1 1 -44.22082121794045 74.99513236247327 0
575 1 1 1 1 95.74404720998328 46.51361968873491 0
576 1 1 1 1 59.5701134383232 -115.7499061545772 0
577 1 1 1 1 125.9116356754425 76.26490544845842 0
578 1 1 1 1 45.13207730126041 48.66329728163521 0
579 1 1 1 1 -125.6468920737986 -158.7926557433589 0
580 1 1 1 1 -1.301679490381446 20.2571909653899 0
581 1 1 1 1 -157.331206657329 51.44979106929455 0
582 1 1 1 1 7.276281347444808 121.2631164416038 0
583 1 1 1 1 155.3245091000787 -23.52371957220041 0
584 1 1 1 1 -78.51601209165852 118.8350177802151 0
585 1 1 1 1 14.26313022825519 102.6695588685926 0
586 1 1 1 1 -71.71716166550098 -138.0110068823825 0
587 1 1 1 1 111.554342815976 98.58069875930966 0
588 1 1 1 1 -87.68867696583766 -21.33137107071957 0
589 1 1 1 1 2.20179856980306 140.6267370767582 0
590 1 1 1 1 114.4056900141418 -71.84850818213422 0