

716 atoms
1551 bonds
1 atom types
1 bond types
-160 160 xlo xhi
-160 160 ylo yhi
-32 32 zlo zhi

Atoms #bpm/sphere

1 1 1 1 1 -28.19203052332571 -65.57096016792752 0
2 1 1 1 1 75.90251945527865 -19.31665447249119 0
3 1 1 1 1 3.1919211208685 154.5028764795931 0
4 1 1 1 1 16.81743944952797 17.93257122644815 0
5 1 1 1 1 62.8349016092653 105.348654646949 0
6 1 1 1 1 140.7758355727389 -74.04138459556845 0
7 1 1 1 1 -109.7982622592145 41.74073946130432 0
8 1 1 1 1 -55.16106272521114 -66.36210680672772 0
9 1 1 1 1 -76.10127424507621 62.97349304272052 0
10 1 1 1 1 -25.75147203995922 37.94321776347817 0
11 1 1 1 1 -141.3623050943156 147.33859849365 0
12 1 1 1 1 -102.9542139869766 137.7198582302761 0
13 1 1 1 1 -104.6570320978799 -144.6535601205811 0
14 1 1 1 1 112.2466374993204 -135.7725780665143 0
15 1 1 1 1 -153.072615289078 121.4815191848336 0
16 1 1 1 1 -66.98114512792493 -117.1091835273833 0
17 1 1 1 1 -79.78782421055463 -123.9259063049816 0
18 1 1 1 1 -85.23699062306559 144.7917148966732 0
19 1 1 1 1 139.1939070192418 96.48281445214468 0
20 1 1 1 1 34.77171176839204 -158.2594523008539 0
21 1 1 1 1 80.58593595449483 -86.29412459932013 0
22 1 1 1 1 18.12384034401242 -77.30576957009549 0
23 1 1 1 1 -94.25595423090999 -146.2448822270242 0
24 1 1 1 1 87.71459739619206 -156.0500464082779 0
25 1 1 1 1 134.2840161647646 66.00858134049167 0
26 1 1 1 1 -23.82992603463464 -113.1195570719829 0
27 1 1 1 1 60.1125395581916 -150.344910178462 0
28 1 1 1 1 141.301171107986 114.4044611453999 0
29 1 1 1 1 -95.77360291134016 115.0017388084051 0
30 1 1 1 1 -7.453199603416493 -57.1378855409727 0
31 1 1 1 1 -34.9001650287222 22.11450329211226 0
32 1 1 1 1 65.0415353105785 -89.23910304985526 0
33 1 1 1 1 -33.66079084094477 -43.21566853042586 0
34 1 1 1 1 -86.26767929006114 5.594167169842763 0
35 1 1 1 1 130.1303933696348 -45.82314406812742 0
36 1 1 1 1 154.2618683041678 -19.75562225993974 0
37 1 1 1 1 27.23707472062165 -81.39997630727144 0
38 1 1 1 1 143.4238957251478 4.480537308508076 0
39 1 1 1 1 152.4481042293089 -149.3955675697983 0
40 1 1 1 1 -75.00316120085564 159.2783159351927 0
41 1 1 1 1 -5.284901811098877 -134.2904835515922 0
42 1 1 1 1 -103.1596923791762 20.52395936965425 0
43 1 1 1 1 -43.74077826886129 69.47192250611869 0
44 1 1 1 1 -157.9476343177481 -41.73387577112788 0
45 1 1 1 1 14.98576381335891 74.077064341903 0
46 1 1 1 1 119.4642140988053 126.7312897099033 0
47 1 1 1 1 55.99853980528653 123.5669638996301 0
48 1 1 1 1 -20.53636333542929 -101.428651478405 0
49 1 1 1 1 -128.2714765160401 -159.6311041937538 0
50 1 1 1 1 -76.57524171644778 5.429016408836304 0
51 1 1 1 1 -123.7385752982282 101.2278905454997 0
52 1 1 1 1 46.3703185517212 -141.6494086262455 0
53 1 1 1 1 77.87792914178934 153.5134542927175 0
54 1 1 1 1 -96.12425117810633 66.98886848083421 0
55 1 1 1 1 40.46295931205765 70.57219915647357 0
56 1 1 1 1 81.33355220936733 137.0907286607871 0
57 1 1 1 1 16.28090485831902 -138.8785032882837 0
58 1 1 1 1 150.8604380935126 -138.285380419672 0
59 1 1 1 1 128.3086277754965 -68.99119595725065 0
60 1 1 1 1 3.229284170052949 -87.14548440936291 0
61 1 1 1 1 -116.7464652453435 -152.231744690821 0
62 1 1 1 1 58.85248263121235 -79.15292366444703 0
63 1 1 1 1 150.6059563592452 -110.1263438330393 0
64 1 1 1 1 58.60253085130879 73.67143475705919 0
65 1 1 1 1 76.58320010671673 3.409057933136296 0
66 1 1 1 1 150.8101172770365 -74.19486911455898 0
67 1 1 1 1 -72.74910513081416 -32.87869597815398 0
68 1 1 1 1 -94.21502858068223 -19.19348129858116 0
69 1 1 1 1 -5.293553853082329 -36.19119241561791 0
70 1 1 1 1 -154.9740757906104 -128.7318986098409 0
71 1 1 1 1 149.8472302198286 42.37958439491666 0
72 1 1 1 1 133.4353689797391 42.23731487358469 0
73 1 1 1 1 45.95387901756379 8.816349350689848 0
74 1 1 1 1 93.17029061474028 -31.347093939404 0
75 1 1 1 1 -120.360558571385 133.2576280814039 0
76 1 1 1 1 -120.4192995213539 50.20661338985619 0
77 1 1 1 1 128.6533064841066 132.5065465099282 0
78 1 1 1 1 32.78101436569182 59.17403398701464 0
79 1 1 1 1 -140.9496314020001 131.1932272276836 0
80 1 1 1 1 -91.70043245628371 -157.8099528853824 0
81 1 1 1 1 -24.22807903778374 -90.18995659355622 0
82 1 1 1 1 2.781117870732146 106.0851838694742 0
83 1 1 1 1 -66.81464532833211 91.30989666767169 0
84 1 1 1 1 61.02670686449784 -20.56476512910805 0
85 1 1 1 1 -0.4898836246601661 84.87759981190624 0
86 1 1 1 1 -148.8045365006036 4.730626364638738 0
87 1 1 1 1 63.05699691236066 -127.3399581111379 0
88 1 1 1 1 -34.77811980987684 135.7695997763967 0
89 1 1 1 1 -106.1075955221296 101.6332353028617 0
90 1 1 1 1 -63.50180761371604 136.3893753281505 0
91 1 1 1 1 -25.77062093706559 7.672390011014699 0
92 1 1 1 1 -54.6267441745966 -89.41807466819324 0
93 1 1 1 1 -15.04408514055356 59.06834089203977 0
94 1 1 1 1 156.9708931293185 159.5767797589587 0
95 1 1 1 1 118.9824371124968 -87.96852437167075 0
96 1 1 1 1 119.9213532354352 51.10785879574647 0
97 1 1 1 1 4.299735517170546 75.03448255915188 0
98 1 1 1 1 -76.98941656432737 -150.0066115480511 0
99 1 1 1 1 86.78489869626884 38.38443286931056 0
100 1 1 1 1 -58.27766070823195 83.14326932744251 0
101 1 1 1 1 109.226195520248 -159.3587027495666 0
102 1 1 1 1 -73.23731490044594 115.7828197099656 0
103 1 1 1 1 -66.32686906472341 59.37238301796978 0
104 1 1 1 1 -8.424621921766516 -20.81549073382132 0
105 1 1 1 1 153.2888067285782 -95.27276023030015 0
106 1 1 1 1 99.35952845219549 -3.456660959616755 0
107 1 1 1 1 -70.4417188782319 -90.362827537344 0
108 1 1 1 1 -34.24574939122174 -28.34175858236108 0
109 1 1 1 1 -18.28563873052281 20.89542609710247 0
110 1 1 1 1 -142.1423897170395 -69.36029539493165 0
111 1 1 1 1 73.29161923394895 -9.484614228259488 0
112 1 1 1 1 -21.63571900763958 71.34686837447697 0
113 1 1 1 1 -61.23666228736693 36.8333461592853 0
114 1 1 1 1 111.4061681323616 46.54057333310493 0
115 1 1 1 1 116.9575277162555 6.017465100768106 0
116 1 1 1 1 -109.0530258781945 58.46603776406425 0
117 1 1 1 1 85.77756553603456 -71.09442587712098 0
118 1 1 1 1 30.41416013509448 -136.8553739198279 0
119 1 1 1 1 -86.75014328881244 109.8011495959586 0
120 1 1 1 1 6.559671665937827 -11.60973810669105 0
121 1 1 1 1 65.21854191518926 10.67756917170598 0
122 1 1 1 1 39.37001858335859 83.02291051220749 0
123 1 1 1 1 -115.8151004500098 93.45166212902771 0
124 1 1 1 1 77.38560772838807 120.0686963323446 0
125 1 1 1 1 150.0450601365013 148.6337985698189 0
126 1 1 1 1 56.3243003577264 22.80166317478768 0
127 1 1 1 1 -109.3884160382979 -28.75176121253668 0
128 1 1 1 1 -153.77664209607 -90.21184916951088 0
129 1 1 1 1 120.2515894701647 -17.50849321903033 0
130 1 1 1 1 125.6746316594102 83.45380836105105 0
131 1 1 1 1 86.62071775261796 24.28051124663108 0
132 1 1 1 1 147.2614750196894 19.84043527484491 0
133 1 1 1 1 20.02726262995401 -62.62355156593355 0
134 1 1 1 1 -42.40029955145235 155.3825853717889 0
135 1 1 1 1 -39.38750053246203 112.9247877104993 0
136 1 1 1 1 37.61292889730842 -57.11742845066891 0
137 1 1 1 1 -30.00975855670413 152.1839399984692 0
138 1 1 1 1 1.544062168760206 44.82090336112034 0
139 1 1 1 1 -157.1179081468771 -106.9621533613185 0
140 1 1 1 1 36.35574843026077 19.39890897342082 0
141 1 1 1 1 143.9599435736676 -58.10452298772813 0
142 1 1 1 1 -55.8706099887219 54.23650197085817 0
143 1 1 1 1 -85.63025076634247 -50.80262963945806 0
144 1 1 1 1 -54.19579753866716 133.1851649226094 0
145 1 1 1 1 -154.250323050527 57.27230456182531 0
146 1 1 1 1 -31.62387022617108 -139.005798862785 0
147 1 1 1 1 43.07330641179368 -18.88103630798909 0
148 1 1 1 1 -103.5114883765547 -59.4674207994085 0
149 1 1 1 1 -69.61561797552204 -69.11733670842136 0
150 1 1 1 1 -136.8624057350959 45.12703867283849 0
151 1 1 1 1 -7.49545246156282 35.07378396294911 0
152 1 1 1 1 -126.3669565372805 13.77421357535397 0
153 1 1 1 1 -78.28543573919042 137.1540202807954 0
154 1 1 1 1 88.87407509440555 -93.80823218001038 0
155 1 1 1 1 -7.138659984791218 -106.2951821514522 0
156 1 1 1 1 -122.8022407361824 -14.61283200796152 0
157 1 1 1 1 -131.187629041736 -125.3168608599734 0
158 1 1 1 1 -28.24162648245971 -122.3431649357168 0
159 1 1 1 1 29.39303327805993 93.90599933787081 0
160 1 1 1 1 157.5324139458579 6.643538936714037 0
161 1 1 1 1 -39.16176182057562 -4.920714383892289 0
162 1 1 1 1 107.4030832464011 -69.29687249761758 0
163 1 1 1 1 15.91426525659244 -98.7350116976975 0
164 1 1 1 1 141.8289503178134 -24.63042460407397 0
165 1 1 1 1 -127.2261360907614 -49.18460695389174 0
166 1 1 1 1 -11.93834730539589 -78.85035944924556 0
167 1 1 1 1 1.8470634236499 -60.34794207065232 0
168 1 1 1 1 136.2102006437495 -130.2276015742825 0
169 1 1 1 1 29.15184312132669 74.40148471075034 0
170 1 1 1 1 -95.47506767746555 -2.714292902738578 0
171 1 1 1 1 -134.1249979883584 105.5499668523691 0
172 1 1 1 1 -53.08834843783561 -29.11732931780176 0
173 1 1 1 1 -145.0826313339071 -21.99247238540394 0
174 1 1 1 1 139.5030314690239 53.77676996104125 0
175 1 1 1 1 -0.2431856521320981 138.3399441908525 0
176 1 1 1 1 -82.82934277784125 -65.41880288585936 0
177 1 1 1 1 -155.0663856794348 -3.951487918812802 0
178 1 1 1 1 -79.59534413651286 -78.44950144797821 0
179 1 1 1 1 78.62736203498133 -34.75768017161653 0
180 1 1 1 1 75.849235116106 -137.418790387066 0
181 1 1 1 1 68.41932695330115 128.4989494119305 0
182 1 1 1 1 21.25829310883023 38.34900522140632 0
183 1 1 1 1 122.752949519305 -147.6121990892461 0
184 1 1 1 1 98.15719546717264 77.16231425595868 0
185 1 1 1 1 135.8727591866071 76.1450143938826 0
186 1 1 1 1 91.30093211757921 136.7582503850086 0
187 1 1 1 1 -9.061153044033404 147.8602687578329 0
188 1 1 1 1 -138.7254995316522 96.78400640440111 0
189 1 1 1 1 -85.95823582598506 69.71539261508667 0
190 1 1 1 1 18.7204566434643 -36.77872909844929 0
191 1 1 1 1 9.347691042443387 -117.4030586790925 0
192 1 1 1 1 -85.48966303675175 -31.72209208199249 0
193 1 1 1 1 115.4854111850366 -34.98275088921969 0
194 1 1 1 1 34.11705385078363 -29.77275437505983 0
195 1 1 1 1 -0.4927288154714802 23.64990762996462 0
196 1 1 1 1 -90.27264596330006 -121.9747248319096 0
197 1 1 1 1 -148.3381230199157 37.08320102825542 0
198 1 1 1 1 130.0329864910938 -57.37588662180258 0
199 1 1 1 1 -121.5213593912664 -77.07921844262934 0
200 1 1 1 1 -54.03517536606998 112.4194190099971 0
201 1 1 1 1 136.9017428270717 -142.6267200410797 0
202 1 1 1 1 130.0636046800498 116.2971709567443 0
203 1 1 1 1 41.13229114258317 96.54443630616845 0
204 1 1 1 1 53.91508679577808 54.65716205508525 0
205 1 1 1 1 -159.7312537971576 94.79796839045005 0
206 1 1 1 1 151.9453754301197 -46.48448422225084 0
207 1 1 1 1 64.54929114154763 41.79563785314033 0
208 1 1 1 1 -135.2471126629933 -32.28344345042053 0
209 1 1 1 1 121.0794615413412 150.1566977896774 0
210 1 1 1 1 152.6292824229383 72.76133862479301 0
211 1 1 1 1 80.58349679906951 53.37081255741413 0
212 1 1 1 1 -91.31239638954244 131.9495377131136 0
213 1 1 1 1 26.35761628654163 111.3131530822577 0
214 1 1 1 1 -77.81599813614392 -5.802395921988307 0
215 1 1 1 1 35.46595707263168 126.5404570532035 0
216 1 1 1 1 -28.52773880209125 57.11965483533902 0
217 1 1 1 1 -106.27048854864 158.9005843227187 0
218 1 1 1 1 144.9557102213798 -155.6510773324514 0
219 1 1 1 1 0.06371454919440112 12.32111855454957 0
220 1 1 1 1 38.89739912228069 -90.06860896213934 0
221 1 1 1 1 -114.820768498466 119.8035412401469 0
222 1 1 1 1 -45.38603140593487 -59.68986721703182 0
223 1 1 1 1 131.4168402964831 0.6146389403847934 0
224 1 1 1 1 82.68278845113943 -12.29085735411218 0
225 1 1 1 1 67.77672852488155 -110.7668500263495 0
226 1 1 1 1 59.50425986847341 -10.91463164442945 0
227 1 1 1 1 148.4556211384854 103.1815510868961 0
228 1 1 1 1 82.40589082153178 -121.3254742753199 0
229 1 1 1 1 -69.21906358992192 19.87036814195559 0
230 1 1 1 1 91.28605250475204 -80.91276703128536 0
231 1 1 1 1 -67.94188613775773 -137.81058596064 0
232 1 1 1 1 -85.05490366606246 90.08449840436703 0
233 1 1 1 1 -100.8784891443839 -73.84476943591068 0
234 1 1 1 1 -139.6696276876678 -153.572070506354 0
235 1 1 1 1 -37.75924561455508 80.61144828953752 0
236 1 1 1 1 -131.5661869179491 153.306962864709 0
237 1 1 1 1 65.66077995898343 -38.87401228535992 0
238 1 1 1 1 -158.9576866175651 77.63679712693585 0
239 1 1 1 1 -50.10609705945441 -12.85269783565957 0
240 1 1 1 1 6.432081895873864 -43.27374565758504 0
241 1 1 1 1 42.18577551729697 -127.8196626093827 0
242 1 1 1 1 -112.4957298973918 28.6580832690922 0
243 1 1 1 1 -20.29820071053533 109.6943023439298 0
244 1 1 1 1 11.72512913650331 -128.7303391866936 0
245 1 1 1 1 97.32852954716185 -131.2794950022582 0
246 1 1 1 1 91.34242989238243 98.15709308013976 0
247 1 1 1 1 22.78838011395575 -110.349004756664 0
248 1 1 1 1 -45.00419654827868 -43.85381110939292 0
249 1 1 1 1 -133.2973939944696 -75.91849868810087 0
250 1 1 1 1 94.99671527370958 -104.9634062405486 0
251 1 1 1 1 51.31157658152515 -104.8854842340886 0
252 1 1 1 1 -111.6735342178119 -7.627939336272362 0
253 1 1 1 1 127.8454345581527 -83.74561127669449 0
254 1 1 1 1 -42.01179654616681 -73.61161904848181 0
255 1 1 1 1 -104.0548100255462 126.0205234877059 0
256 1 1 1 1 45.38996647224192 131.3955283044325 0
257 1 1 1 1 -62.90405861007113 -40.09144208342249 0
258 1 1 1 1 -127.0649322790933 -114.3478120699698 0
259 1 1 1 1 5.934408800455401 -1.964081341166548 0
260 1 1 1 1 -54.51881044111235 -49.7858580595787 0
261 1 1 1 1 -85.79997267602184 33.69378434668928 0
262 1 1 1 1 -78.04576147602937 45.52660877453656 0
263 1 1 1 1 -150.1437267514835 -118.5276293961908 0
264 1 1 1 1 -93.40407444798693 47.24073280968295 0
265 1 1 1 1 136.9268744993951 23.23741632548672 0
266 1 1 1 1 -65.98288531415982 -23.25535680403647 0
267 1 1 1 1 -16.6090965358234 122.4847966395051 0
268 1 1 1 1 85.39708411912824 88.98623798747593 0
269 1 1 1 1 95.19375737929496 -67.16429441639602 0
270 1 1 1 1 -138.1815876587619 -132.1531915917268 0
271 1 1 1 1 -52.63918436064124 30.77568432053215 0
272 1 1 1 1 28.8473568996385 -91.84581120460192 0
273 1 1 1 1 -158.9220017920449 36.35888243506545 0
274 1 1 1 1 -111.9442628617456 8.934164294255993 0
275 1 1 1 1 119.8726077500917 -129.0482437019646 0
276 1 1 1 1 140.2296702906116 -43.96759848548993 0
277 1 1 1 1 59.26133080278649 -138.9618139266098 0
278 1 1 1 1 155.752305914522 95.74960214490116 0
279 1 1 1 1 22.11218955132711 -24.61263364172072 0
280 1 1 1 1 63.17220720166426 91.74825230212997 0
281 1 1 1 1 30.4564704478926 -119.9231247617361 0
282 1 1 1 1 18.79667566729114 -89.16082555456015 0
283 1 1 1 1 154.7695936618072 -2.96331844329697 0
284 1 1 1 1 -49.42088367310795 -98.00920703398816 0
285 1 1 1 1 -49.99162332589282 -134.7266323359429 0
286 1 1 1 1 -29.66103639356317 -19.40510058187039 0
287 1 1 1 1 110.4209486130367 81.07044403298389 0
288 1 1 1 1 145.7999523545461 -127.9180789929 0
289 1 1 1 1 56.31876578079218 -55.12879404262335 0
290 1 1 1 1 -120.5054375208927 38.54291883446226 0
291 1 1 1 1 4.43679936394858 -23.19207006965937 0
292 1 1 1 1 -124.1225226156975 81.06702777325199 0
293 1 1 1 1 67.69252757092119 153.0689147360102 0
294 1 1 1 1 -87.05901187705258 -110.6844750898382 0
295 1 1 1 1 -136.2634774565414 56.49443350555671 0
296 1 1 1 1 121.8804351342067 -117.5707357490268 0
297 1 1 1 1 -35.6997026983818 -56.39518456696017 0
298 1 1 1 1 39.44054050301463 33.04835015265158 0
299 1 1 1 1 34.67462147889768 -8.549293663730168 0
300 1 1 1 1 -39.22538188427754 40.1182594119071 0
301 1 1 1 1 12.56315079662895 -153.090774101369 0
302 1 1 1 1 80.13972016339014 -107.8070693053302 0
303 1 1 1 1 159.653691704249 112.9153636200145 0
304 1 1 1 1 71.50926678181077 110.8608322140963 0
305 1 1 1 1 48.41681553439491 37.48466221537754 0
306 1 1 1 1 -10.86250435598456 97.70408691510966 0
307 1 1 1 1 5.984527651902397 92.39395575629351 0
308 1 1 1 1 7.928351469453673 61.56189449855481 0
309 1 1 1 1 24.60144917042354 144.7996773762958 0
310 1 1 1 1 -118.8727840095713 -30.5655454591909 0
311 1 1 1 1 1.505452365672085 -98.9637794043292 0
312 1 1 1 1 17.71593226202856 133.2452250235231 0
313 1 1 1 1 37.10560997009242 -109.3419747164319 0
314 1 1 1 1 -148.5877793420904 83.02803911042631 0
315 1 1 1 1 -21.25739898007834 141.8246758481099 0
316 1 1 1 1 -81.86281252326033 -135.1898829013482 0
317 1 1 1 1 -20.58587868086821 -146.5189775789785 0
318 1 1 1 1 -126.8913792925533 -103.5316547924859 0
319 1 1 1 1 139.2592649633706 -94.8476836473661 0
320 1 1 1 1 107.2395928937851 30.79471276124468 0
321 1 1 1 1 17.32490115280567 4.007575284633845 0
322 1 1 1 1 -138.5532822723889 -50.05096118346199 0
323 1 1 1 1 142.9660658518226 130.9575812731107 0
324 1 1 1 1 53.10380119848944 83.14221218926781 0
325 1 1 1 1 83.14902457552679 -57.03180292316738 0
326 1 1 1 1 11.00310000356927 -52.63809769755585 0
327 1 1 1 1 101.872575555489 -54.59643168050661 0
328 1 1 1 1 -93.61913919419041 23.50357303340468 0
329 1 1 1 1 -137.5532443236483 70.7636862493155 0
330 1 1 1 1 -97.96425824278209 -105.4556215285055 0
331 1 1 1 1 135.0583828415889 -15.1107117134342 0
332 1 1 1 1 -53.04315802492584 65.76393467610288 0
333 1 1 1 1 -144.1468897260759 -36.17458883572186 0
334 1 1 1 1 52.6583925076655 99.80784316671213 0
335 1 1 1 1 -18.14034272595507 -129.3653257879065 0
336 1 1 1 1 -140.795281881268 -98.45112496865688 0
337 1 1 1 1 103.4428752823246 56.53274620400012 0
338 1 1 1 1 11.35755926324975 121.2799825832657 0
339 1 1 1 1 -96.56127083564307 -35.20610380191229 0
340 1 1 1 1 68.34484920532242 138.3445020487471 0
341 1 1 1 1 -11.84033096528296 -68.22192311122907 0
342 1 1 1 1 154.2430204861847 58.96786858970017 0
343 1 1 1 1 73.95744662635673 -99.69105350604053 0
344 1 1 1 1 141.2344818331383 -113.2884388924514 0
345 1 1 1 1 -136.6902909356783 85.02506241361738 0
346 1 1 1 1 112.8642299859915 -55.063871121891 0
347 1 1 1 1 -41.46308824300128 -112.4974113807694 0
348 1 1 1 1 70.7292447983404 33.47280177065704 0
349 1 1 1 1 -49.10968185284922 6.440448380268265 0
350 1 1 1 1 -107.1987674550489 111.2236253409478 0
351 1 1 1 1 -149.6688395228663 103.4414309632604 0
352 1 1 1 1 -132.0282654240011 -59.14362905120214 0
353 1 1 1 1 -57.98698702819817 14.8375464167589 0
354 1 1 1 1 -106.0565756437695 -113.3188092768491 0
355 1 1 1 1 106.2358490445799 128.5636324701659 0
356 1 1 1 1 -69.6897644436682 -12.01335848784277 0
357 1 1 1 1 -46.22862417894009 56.25165079328073 0
358 1 1 1 1 -97.81659101478797 -132.2782325134726 0
359 1 1 1 1 106.6791383222065 -93.53245956786634 0
360 1 1 1 1 -148.46580678876 -53.79511191991149 0
361 1 1 1 1 92.52057007302858 -18.28924620625159 0
362 1 1 1 1 47.94839188270709 -44.75542536110275 0
363 1 1 1 1 51.41172791427519 141.3124163803674 0
364 1 1 1 1 32.26061306100343 44.57485572874106 0
365 1 1 1 1 109.3124729478733 -107.7996935303791 0
366 1 1 1 1 96.07943568017697 116.154198943902 0
367 1 1 1 1 -147.818180751094 26.56005546408034 0
368 1 1 1 1 -81.32571044379034 -96.3651692264055 0
369 1 1 1 1 53.56992842650675 -158.5783272236729 0
370 1 1 1 1 102.7506694069027 -144.6964438106311 0
371 1 1 1 1 -64.39032136759633 -60.23671797094747 0
372 1 1 1 1 -68.5172552537077 -105.4792904720052 0
373 1 1 1 1 126.9577264445679 -94.31180158889468 0
374 1 1 1 1 117.7917060752837 20.69569888489303 0
375 1 1 1 1 34.49645327944012 154.6250704583833 0
376 1 1 1 1 -64.27758187785275 5.961560394191281 0
377 1 1 1 1 -15.33581763794422 2.827067731830766 0
378 1 1 1 1 99.87363916096865 10.22821179941917 0
379 1 1 1 1 114.304936066562 158.8382688823334 0
380 1 1 1 1 104.6810051304336 -25.52900835813796 0
381 1 1 1 1 82.26157955109755 101.3156124988574 0
382 1 1 1 1 74.82098673927885 24.20066344476655 0
383 1 1 1 1 107.5060307069212 117.8591843047565 0
384 1 1 1 1 -7.645351635747772 52.58212912335421 0
385 1 1 1 1 -4.611820676681504 3.210823416453763 0
386 1 1 1 1 84.46565211843276 -25.59432895815928 0
387 1 1 1 1 70.38275892279142 82.74600398186439 0
388 1 1 1 1 -6.500235056015185 113.461739500632 0
389 1 1 1 1 -30.85463878854364 107.2865039496075 0
390 1 1 1 1 65.44299230055731 -66.05245724306425 0
391 1 1 1 1 -117.9641980117357 -60.87289452330086 0
392 1 1 1 1 69.08295724627783 -26.67375604420863 0
393 1 1 1 1 90.14465036570311 62.26212219430505 0
394 1 1 1 1 131.6141647784758 146.1825273017254 0
395 1 1 1 1 -131.8518858351925 -20.6301398181607 0
396 1 1 1 1 106.7253734266878 68.36282836826325 0
397 1 1 1 1 -5.92800060932845 74.40808108091369 0
398 1 1 1 1 94.37063932198492 51.35517980638883 0
399 1 1 1 1 33.30059662384795 4.436664449081462 0
400 1 1 1 1 -20.06182202640116 -46.84676419447354 0
401 1 1 1 1 87.4208559877523 11.5256563167265 0
402 1 1 1 1 27.18712602291791 -52.23578833321156 0
403 1 1 1 1 -124.2693231556937 -92.34349397348933 0
404 1 1 1 1 -130.7954961380103 30.61745498057846 0
405 1 1 1 1 74.53159786874735 -69.59862923339432 0
406 1 1 1 1 -39.02552742895057 -87.89199462900197 0
407 1 1 1 1 159.4218716113675 -37.05907662564648 0
408 1 1 1 1 -94.5827600254237 100.8704503367921 0
409 1 1 1 1 -115.3893814396556 -128.4250431127266 0
410 1 1 1 1 92.74566718604808 155.9314731203633 0
411 1 1 1 1 54.59036486671744 -92.16475993223888 0
412 1 1 1 1 -61.60860007244281 25.94105751709264 0
413 1 1 1 1 92.03023491041785 -42.410999767428 0
414 1 1 1 1 5.135934798981651 -142.4949975552025 0
415 1 1 1 1 52.13598304563578 -1.853526725319625 0
416 1 1 1 1 -83.97392417615862 -17.87149961162106 0
417 1 1 1 1 30.18613358353429 -42.03630423612864 0
418 1 1 1 1 144.2451092308402 32.37781204793961 0
419 1 1 1 1 -86.8249916811416 -87.82261595114775 0
420 1 1 1 1 63.43456905428172 63.18593465182343 0
421 1 1 1 1 10.33782850431118 27.47285394907669 0
422 1 1 1 1 -129.7860035164752 -141.5849994431416 0
423 1 1 1 1 -27.16925298579423 94.78125780984362 0
424 1 1 1 1 -128.485735556334 120.9699086721308 0
425 1 1 1 1 -110.9579582973559 -45.36757018012008 0
426 1 1 1 1 -60.55669775839593 155.1868848500161 0
427 1 1 1 1 -137.8951704271 15.19723792441852 0
428 1 1 1 1 156.3506023944616 -159.6477838474945 0
429 1 1 1 1 -49.2801477815221 -119.398331477651 0
430 1 1 1 1 -159.407342686852 141.892107418817 0
431 1 1 1 1 8.908658981326653 142.6698375458356 0
432 1 1 1 1 -27.20896664446803 -78.1341982789485 0
433 1 1 1 1 129.3001548999955 -34.04454170152164 0
434 1 1 1 1 96.49859285419575 31.81083864324478 0
435 1 1 1 1 97.10774329049332 -159.7459818349848 0
436 1 1 1 1 -76.52498241419799 125.1841561284102 0
437 1 1 1 1 -101.0675766857505 -94.2456321181907 0
438 1 1 1 1 -28.3829977959669 78.39260938735066 0
439 1 1 1 1 31.38652908174666 -18.20215638472735 0
440 1 1 1 1 42.98428724406892 -69.79130060150112 0
441 1 1 1 1 -26.14710094298493 128.8628784557517 0
442 1 1 1 1 -51.32413336781937 -145.2627961279995 0
443 1 1 1 1 -18.29763333727843 46.34905088717954 0
444 1 1 1 1 129.0456894579698 98.37111208085003 0
445 1 1 1 1 158.1082403118539 48.39319311958087 0
446 1 1 1 1 -37.88370313696142 -157.5137056514331 0
447 1 1 1 1 -26.85636265047805 -156.2857323382767 0
448 1 1 1 1 159.7959093382261 23.36221422109344 0
449 1 1 1 1 -7.750374935587985 -10.50936256505696 0
450 1 1 1 1 50.18612927582257 -27.3869903622045 0
451 1 1 1 1 -14.42484788926748 133.1020851940916 0
452 1 1 1 1 -72.89362000469356 147.3952996076262 0
453 1 1 1 1 -53.33416142484342 42.36328591093502 0
454 1 1 1 1 74.27600966182794 46.11751423502977 0
455 1 1 1 1 -100.7878635857982 81.60570747401519 0
456 1 1 1 1 22.88067757931319 86.72105621696346 0
457 1 1 1 1 -65.67180529799285 123.0167347846111 0
458 1 1 1 1 146.0143053788618 -12.8310642914002 0
459 1 1 1 1 103.9394353362195 -83.94390295501569 0
460 1 1 1 1 86.94272963314882 124.6485191304657 0
461 1 1 1 1 30.00937578776686 -67.46025634015948 0
462 1 1 1 1 -9.339319914132204 -147.7013820322637 0
463 1 1 1 1 111.8079318768104 106.4674349635776 0
464 1 1 1 1 22.46596444178178 159.0806110394478 0
465 1 1 1 1 70.04928993966911 -159.9348788019558 0
466 1 1 1 1 108.6059349689339 -126.3372133468343 0
467 1 1 1 1 -0.9941005263668217 -118.5637832935342 0
468 1 1 1 1 -23.18205955793135 -33.49604207035097 0
469 1 1 1 1 -147.2481182934997 -143.2577950019671 0
470 1 1 1 1 -100.0242673119265 -46.76271955856876 0
471 1 1 1 1 150.524740964621 86.65062430642533 0
472 1 1 1 1 66.27117657650589 51.58467842266879 0
473 1 1 1 1 -52.21040977449945 90.98394875516422 0
474 1 1 1 1 117.1313007700642 32.64529201188051 0
475 1 1 1 1 49.29294477505312 -61.76776798875338 0
476 1 1 1 1 -39.5650013382015 123.9743369962948 0
477 1 1 1 1 2.572482179903716 -76.58674040066518 0
478 1 1 1 1 -119.2741151228473 71.06142754860872 0
479 1 1 1 1 115.6232014048267 96.81251909912561 0
480 1 1 1 1 2.664216768883307 116.4947461115051 0
481 1 1 1 1 98.89928936361218 91.17519822896969 0
482 1 1 1 1 -71.12388912462822 33.62363459879603 0
483 1 1 1 1 61.37388714502259 115.0261079776691 0
484 1 1 1 1 -130.6743104982321 131.9597571860995 0
485 1 1 1 1 -119.0458577885863 153.5982630953232 0
486 1 1 1 1 -96.11782293593978 151.5552290870959 0
487 1 1 1 1 23.81433586114775 24.56856260947342 0
488 1 1 1 1 -64.56820882117145 47.84031417286064 0
489 1 1 1 1 -57.36787440497871 145.7919560243389 0
490 1 1 1 1 -102.1129783087808 91.3563158469085 0
491 1 1 1 1 -151.5812982366874 154.1947696048809 0
492 1 1 1 1 49.22923946928265 152.5577472705128 0
493 1 1 1 1 120.4900590815424 -44.84232866291651 0
494 1 1 1 1 69.94753759026963 -50.7496096287025 0
495 1 1 1 1 -37.34571432178591 -97.63476657334624 0
496 1 1 1 1 -62.88883005601043 -81.93807064777576 0
497 1 1 1 1 19.04139975419159 -120.113341014792 0
498 1 1 1 1 123.6220933860695 -106.2677416809262 0
499 1 1 1 1 33.95608206299318 137.820182783265 0
500 1 1 1 1 115.5411185477051 142.306229867204 0
501 1 1 1 1 -116.4918594290899 -99.55456885159731 0
502 1 1 1 1 -16.32322941118099 -159.1152631030937 0
503 1 1 1 1 -96.95725991870674 36.54884882340471 0
504 1 1 1 1 48.48087275859081 -83.66959366015557 0
505 1 1 1 1 -74.24912106032963 -50.3468185451225 0
506 1 1 1 1 88.61492163552521 -136.5026093887508 0
507 1 1 1 1 86.98108198512443 -0.3783368464707166 0
508 1 1 1 1 -42.86259788792253 102.8643755267502 0
509 1 1 1 1 153.8095111501799 -58.50378865716451 0
510 1 1 1 1 -60.60451730004101 -127.8210103796651 0
511 1 1 1 1 -154.6755618906099 111.6556871972482 0
512 1 1 1 1 -38.57580552634602 90.26518702514971 0
513 1 1 1 1 -101.855023888772 -84.30965852453326 0
514 1 1 1 1 -78.40558135520318 24.22016616861259 0
515 1 1 1 1 -102.1799816145388 -12.25745510709004 0
516 1 1 1 1 79.63517526946623 70.99195406004668 0
517 1 1 1 1 -140.0151676044477 -119.2870361084812 0
518 1 1 1 1 108.0965266991846 0.7154524712344141 0
519 1 1 1 1 -152.5441853488086 -28.87951993547446 0
520 1 1 1 1 -150.5493753356109 135.0079857129095 0
521 1 1 1 1 -158.4546028873643 24.76861648427484 0
522 1 1 1 1 -6.72356206514209 -46.08752549529719 0
523 1 1 1 1 -133.2537236212806 -2.982813368167143 0
524 1 1 1 1 79.82465302194129 -44.58886903102702 0
525 1 1 1 1 44.36335697688645 111.1286473640187 0
526 1 1 1 1 -43.97270808836399 145.2094854672691 0
527 1 1 1 1 -23.40631828043612 -9.581456418542928 0
528 1 1 1 1 -146.8155427255554 48.44484800202395 0
529 1 1 1 1 151.8906175049106 -84.59412606403862 0
530 1 1 1 1 -6.423338316751483 127.351887738721 0
531 1 1 1 1 116.3409990497851 66.23827183786435 0
532 1 1 1 1 105.2600348851709 143.0492174211628 0
533 1 1 1 1 83.49103595754855 -146.3810894997124 0
534 1 1 1 1 -104.779121972359 -154.9247454730473 0
535 1 1 1 1 20.23565028589684 -14.62067236287623 0
536 1 1 1 1 51.89726622246525 66.43210628361743 0
537 1 1 1 1 -12.67026284132322 -92.98632602796206 0
538 1 1 1 1 -107.2884060155005 148.3271798925252 0
539 1 1 1 1 47.51726041977062 26.76055585921912 0
540 1 1 1 1 -155.6141190237608 13.97513210761588 0
541 1 1 1 1 156.068605527147 -123.813712045827 0
542 1 1 1 1 58.13196899463406 148.2206609362643 0
543 1 1 1 1 72.74474181829112 -122.6471818873227 0
544 1 1 1 1 -55.07537733644736 -108.8863453453386 0
545 1 1 1 1 -38.04096332645763 -123.7148659918965 0
546 1 1 1 1 -91.05523128492244 78.12672885527493 0
547 1 1 1 1 132.0095554893185 -120.9033751122784 0
548 1 1 1 1 100.4474872647799 103.0466227179588 0
549 1 1 1 1 -142.2295791306402 -12.71695906443841 0
550 1 1 1 1 -32.13685190047471 -108.2204807481606 0
551 1 1 1 1 -76.37807293069599 80.84431211094233 0
552 1 1 1 1 -90.67394293537245 58.58153986098529 0
553 1 1 1 1 135.0547671696826 156.2672741726963 0
554 1 1 1 1 103.3082641861951 -40.5347647565799 0
555 1 1 1 1 114.2504375461617 -76.62444311153997 0
556 1 1 1 1 -0.0831146038738666 -156.6477657550296 0
557 1 1 1 1 -141.0758984519646 120.2071598609903 0
558 1 1 1 1 103.717412817941 154.0386322338328 0
559 1 1 1 1 24.14748505288691 -159.85355801781 0
560 1 1 1 1 117.8459134807295 -63.4366816054699 0
561 1 1 1 1 101.054186324991 -116.9587909235354 0
562 1 1 1 1 -112.135447929797 -84.26577481826875 0
563 1 1 1 1 52.12271388367 -118.4915598294041 0
564 1 1 1 1 53.54895939015546 -130.6464909654191 0
565 1 1 1 1 -46.87836077228191 17.42879942018396 0
566 1 1 1 1 -77.02748451027638 105.8947159385532 0
567 1 1 1 1 -67.56939650727134 -156.3635692745081 0
568 1 1 1 1 -153.8592435903175 -71.15418834318305 0
569 1 1 1 1 -146.4756857288792 64.01647927632723 0
570 1 1 1 1 23.46215942424891 66.29856398652629 0
571 1 1 1 1 149.7020143015262 -35.75355504151477 0
572 1 1 1 1 153.3751461136273 127.4683451886211 0
573 1 1 1 1 111.505598160077 -12.09388158400736 0
574 1 1 1 1 -94.56293144591226 12.95939804629745 0
575 1 1 1 1 112.4286643634895 -147.0768699763224 0
576 1 1 1 1 -137.1118065492242 -88.66246210023377 0
577 1 1 1 1 128.7171784499664 -136.2570399477486 0
578 1 1 1 1 -80.4131257493394 -159.9209258908494 0
579 1 1 1 1 62.69264071589186 -98.68913957476738 0
580 1 1 1 1 159.394090242275 -68.8495606855291 0
581 1 1 1 1 37.33473059722144 -77.94376295198582 0
582 1 1 1 1 -48.88243072315976 -154.6953478072807 0
583 1 1 1 1 17.69784219841915 95.19183818866793 0
584 1 1 1 1 14.71175287685077 150.7041122926871 0
585 1 1 1 1 -159.9149609161202 -141.4743169353822 0
586 1 1 1 1 15.1472286420265 110.7979065077272 0
587 1 1 1 1 21.54134069092621 49.29889656567144 0
588 1 1 1 1 12.81022837871038 -108.339744203267 0
589 1 1 1 1 127.027925981768 11.53229590326634 0
590 1 1 1 1 99.88227476163763 43.0398902148753 0